#     Step Nr.          Time[fs]        Kin.[a.u.]          Temp[K]            Pot.[a.u.]        Cons Qty[a.u.]        UsedTime[s]
         0            0.000000         0.000000000         0.000000000      -251.547435450      -251.547435450         0.000000000
         1            0.200000         0.000168714         0.563764303      -251.547441367      -251.547272653        24.264000000
         2            0.400000         0.000311911         1.042259029      -251.547454993      -251.547143083         8.653000000
         3            0.600000         0.000602695         2.013925013      -251.547472452      -251.546869757         8.605000000
         4            0.800000         0.000802368         2.681136034      -251.547496198      -251.546693831         8.627000000
         5            1.000000         0.001030873         3.444694784      -251.547522894      -251.546492021         8.641000000
         6            1.200000         0.001703666         5.692851617      -251.547547474      -251.545843808         8.641000000
         7            1.400000         0.001925362         6.433654968      -251.547575319      -251.545649957         8.644000000
         8            1.600000         0.001917771         6.408289570      -251.547611153      -251.545693383         8.634000000
         9            1.800000         0.002314191         7.732941137      -251.547650235      -251.545336043         8.637000000
        10            2.000000         0.002601496         8.692977480      -251.547692124      -251.545090628         8.639000000
        11            2.200000         0.002870900         9.593199065      -251.547735765      -251.544864865         8.589000000
        12            2.400000         0.003119036        10.422352939      -251.547776549      -251.544657514         8.801000000
        13            2.600000         0.003762216        12.571558750      -251.547817743      -251.544055527         9.032000000
        14            2.800000         0.003992268        13.340284930      -251.547859634      -251.543867366         8.967000000
        15            3.000000         0.004275855        14.287899666      -251.547898296      -251.543622442         9.013000000
        16            3.200000         0.004293760        14.347729513      -251.547937159      -251.543643400         9.003000000
        17            3.400000         0.004504063        15.050465037      -251.547980388      -251.543476325         8.964000000
        18            3.600000         0.004632218        15.478698099      -251.548026832      -251.543394614         8.991000000
        19            3.800000         0.004899540        16.371961646      -251.548071820      -251.543172281         8.959000000
        20            4.000000         0.004725818        15.791466246      -251.548114735      -251.543388917         8.980000000
        21            4.200000         0.004676398        15.626325744      -251.548162502      -251.543486105         9.307000000
        22            4.400000         0.004965103        16.591043376      -251.548213338      -251.543248235         9.516000000
        23            4.600000         0.004902589        16.382153048      -251.548264947      -251.543362357         9.508000000
        24            4.800000         0.005088083        17.001983733      -251.548320131      -251.543232049         9.566000000
        25            5.000000         0.005603485        18.724217740      -251.548378863      -251.542775378         9.405000000
        26            5.200000         0.005746989        19.203740440      -251.548439160      -251.542692170         9.520000000
        27            5.400000         0.006045506        20.201243963      -251.548501161      -251.542455655         9.546000000
        28            5.600000         0.006581702        21.992959929      -251.548563716      -251.541982014         9.582000000
        29            5.800000         0.007384785        24.676484911      -251.548626871      -251.541242086        10.060000000
        30            6.000000         0.007657135        25.586550466      -251.548687963      -251.541030828        10.081000000
        31            6.200000         0.008074483        26.981131847      -251.548743946      -251.540669463        10.262000000
        32            6.400000         0.008340586        27.870323330      -251.548799077      -251.540458491        10.218000000
        33            6.600000         0.008169452        27.298474473      -251.548851597      -251.540682145        10.303000000
        34            6.800000         0.008641862        28.877045858      -251.548902754      -251.540260892        10.257000000
        35            7.000000         0.008838244        29.533264929      -251.548960961      -251.540122716        10.099000000
        36            7.200000         0.008867954        29.632539785      -251.549023412      -251.540155458        10.175000000
        37            7.400000         0.008528392        28.497883860      -251.549086839      -251.540558447        10.019000000
        38            7.600000         0.009113011        30.451406835      -251.549155525      -251.540042513         9.934000000
        39            7.800000         0.009635649        32.197817854      -251.549226683      -251.539591034         9.861000000
        40            8.000000         0.009768756        32.642596729      -251.549297718      -251.539528962        10.156000000
        41            8.200000         0.010645851        35.573437618      -251.549372054      -251.538726203        10.222000000
        42            8.400000         0.011085867        37.043764488      -251.549449649      -251.538363782        10.060000000
        43            8.600000         0.010915144        36.473287728      -251.549527268      -251.538612124         9.865000000
        44            8.800000         0.011430281        38.194634118      -251.549605921      -251.538175640        10.036000000
        45            9.000000         0.011498247        38.421743394      -251.549686776      -251.538188530        10.062000000
        46            9.200000         0.012615895        42.156399217      -251.549769781      -251.537153887        10.091000000
        47            9.400000         0.013756520        45.967831811      -251.549857061      -251.536100541        10.024000000
        48            9.600000         0.013161165        43.978437308      -251.549945601      -251.536784436        10.083000000
        49            9.800000         0.013191579        44.080067044      -251.550029038      -251.536837459         9.822000000
        50           10.000000         0.012808388        42.799620242      -251.550106118      -251.537297731        10.081000000
        51           10.200000         0.012831546        42.877003798      -251.550178249      -251.537346703        10.101000000
        52           10.400000         0.012482645        41.711141632      -251.550247740      -251.537765095        10.061000000
        53           10.600000         0.012810477        42.806601901      -251.550319358      -251.537508881        10.125000000
        54           10.800000         0.012633137        42.214015978      -251.550391242      -251.537758105        10.007000000
        55           11.000000         0.012641492        42.241934072      -251.550458760      -251.537817268        10.050000000
        56           11.200000         0.012255141        40.950930423      -251.550523334      -251.538268192        10.176000000
        57           11.400000         0.012057677        40.291096352      -251.550584670      -251.538526994        10.116000000
        58           11.600000         0.012601729        42.109064046      -251.550642645      -251.538040916        10.045000000
        59           11.800000         0.012585886        42.056123987      -251.550696386      -251.538110500        10.104000000
        60           12.000000         0.013102901        43.783746718      -251.550748222      -251.537645320         9.979000000
        61           12.200000         0.013955616        46.633117304      -251.550802510      -251.536846895        10.227000000
        62           12.400000         0.014674293        49.034600108      -251.550856748      -251.536182455        10.072000000
        63           12.600000         0.015422214        51.533802646      -251.550906674      -251.535484459        10.112000000
        64           12.800000         0.016175466        54.050817211      -251.550947748      -251.534772282        10.168000000
        65           13.000000         0.015872645        53.038930318      -251.550981934      -251.535109289        10.127000000
        66           13.200000         0.015429854        51.559328766      -251.551014203      -251.535584350        10.025000000
        67           13.400000         0.015885052        53.080388614      -251.551046596      -251.535161543         9.975000000
        68           13.600000         0.016165442        54.017321538      -251.551080443      -251.534915001        10.252000000
        69           13.800000         0.016877797        56.397676835      -251.551112549      -251.534234752         9.904000000
        70           14.000000         0.017205026        57.491120642      -251.551138859      -251.533933833        10.244000000
        71           14.200000         0.017579550        58.742604002      -251.551161395      -251.533581845        10.139000000
        72           14.400000         0.018869544        63.053160880      -251.551185254      -251.532315710        10.001000000
        73           14.600000         0.019165841        64.043243924      -251.551208195      -251.532042354        10.035000000
        74           14.800000         0.019372982        64.735413178      -251.551227357      -251.531854375        10.073000000
        75           15.000000         0.019472531        65.068060921      -251.551244186      -251.531771654         9.950000000
        76           15.200000         0.020329950        67.933150850      -251.551259549      -251.530929599        10.055000000
        77           15.400000         0.019944942        66.646635767      -251.551271515      -251.531326573        10.332000000
        78           15.600000         0.020286112        67.786663888      -251.551276489      -251.530990378        10.035000000
        79           15.800000         0.019687059        65.784912815      -251.551274214      -251.531587154         9.816000000
        80           16.000000         0.019075757        63.742227389      -251.551266012      -251.532190255         9.934000000
        81           16.200000         0.019371810        64.731498266      -251.551254121      -251.531882310         9.916000000
        82           16.400000         0.019222033        64.231011804      -251.551237058      -251.532015025        10.076000000
        83           16.600000         0.019234150        64.271500899      -251.551212143      -251.531977993         9.911000000
        84           16.800000         0.019475778        65.078909969      -251.551180252      -251.531704474         9.904000000
        85           17.000000         0.019182803        64.099923411      -251.551141019      -251.531958216         9.901000000
        86           17.200000         0.019624236        65.574988041      -251.551095216      -251.531470980         9.847000000
        87           17.400000         0.019530342        65.261237588      -251.551045818      -251.531515476         9.983000000
        88           17.600000         0.019233587        64.269622009      -251.550994668      -251.531761080         9.987000000
        89           17.800000         0.019684124        65.775104382      -251.550939968      -251.531255844         9.854000000
        90           18.000000         0.020115344        67.216039995      -251.550879034      -251.530763689         9.882000000
        91           18.200000         0.020076620        67.086641395      -251.550808976      -251.530732356         9.878000000
        92           18.400000         0.020940025        69.971735840      -251.550731666      -251.529791641        10.012000000
        93           18.600000         0.020673104        69.079809581      -251.550647088      -251.529973985         9.850000000
        94           18.800000         0.019980626        66.765873815      -251.550557751      -251.530577126        10.015000000
        95           19.000000         0.019023746        63.568430746      -251.550468533      -251.531444787         9.854000000
        96           19.200000         0.019078396        63.751044843      -251.550378257      -251.531299861         9.994000000
        97           19.400000         0.019086449        63.777953469      -251.550287224      -251.531200776         9.838000000
        98           19.600000         0.019230597        64.259628677      -251.550190869      -251.530960272        10.092000000
        99           19.800000         0.018146546        60.637238589      -251.550090218      -251.531943672         9.874000000
       100           20.000000         0.018521505        61.890176819      -251.549987701      -251.531466196         9.891000000
       101           20.200000         0.019089449        63.787980572      -251.549877198      -251.530787749         9.981000000
       102           20.400000         0.018761101        62.690795175      -251.549759353      -251.530998251         9.957000000
       103           20.600000         0.019095621        63.808601662      -251.549638898      -251.530543277         9.968000000
       104           20.800000         0.019673221        65.738672615      -251.549514776      -251.529841555         9.834000000
       105           21.000000         0.019650735        65.663534514      -251.549385337      -251.529734601         9.934000000
       106           21.200000         0.019732499        65.936749813      -251.549250093      -251.529517594        10.055000000
       107           21.400000         0.019765369        66.046586168      -251.549111052      -251.529345683        10.335000000
       108           21.600000         0.019724591        65.910325962      -251.548968691      -251.529244100        10.024000000
       109           21.800000         0.019323459        64.569932331      -251.548822791      -251.529499331         9.827000000
       110           22.000000         0.019467043        65.049720686      -251.548673508      -251.529206465         9.995000000
       111           22.200000         0.019521902        65.233032990      -251.548518939      -251.528997037        10.073000000
       112           22.400000         0.019481935        65.099484898      -251.548362272      -251.528880337        10.268000000
       113           22.600000         0.018861739        63.027079165      -251.548205030      -251.529343291        10.029000000
       114           22.800000         0.018574235        62.066374798      -251.548045640      -251.529471405         9.974000000
       115           23.000000         0.017948973        59.977045126      -251.547884819      -251.529935845         9.888000000
       116           23.200000         0.018221490        60.887666917      -251.547721534      -251.529500044        10.083000000
       117           23.400000         0.017910926        59.849909882      -251.547554963      -251.529644037         9.983000000
       118           23.600000         0.017630215        58.911903442      -251.547386115      -251.529755901         9.910000000
       119           23.800000         0.017960476        60.015480654      -251.547215202      -251.529254726         9.955000000
       120           24.000000         0.017803137        59.489729358      -251.547042999      -251.529239862         9.880000000
       121           24.200000         0.017760392        59.346895158      -251.546870882      -251.529110490        10.040000000
       122           24.400000         0.018518043        61.878607443      -251.546698173      -251.528180130         9.883000000
       123           24.600000         0.018781491        62.758928814      -251.546522234      -251.527740742         9.813000000
       124           24.800000         0.018862686        63.030244593      -251.546346080      -251.527483394        10.064000000
       125           25.000000         0.018572886        62.061866510      -251.546170482      -251.527597596         9.942000000
       126           25.200000         0.018382171        61.424587450      -251.545992713      -251.527610542         9.917000000
       127           25.400000         0.017999510        60.145914262      -251.545814841      -251.527815332         9.795000000
       128           25.600000         0.018286516        61.104952559      -251.545634733      -251.527348217         9.697000000
       129           25.800000         0.018191071        60.786020376      -251.545452980      -251.527261909         9.867000000
       130           26.000000         0.018535228        61.936032946      -251.545272480      -251.526737252         9.804000000
       131           26.200000         0.018652569        62.328132625      -251.545091437      -251.526438867         9.892000000
       132           26.400000         0.019032243        63.596821993      -251.544904827      -251.525872584         9.847000000
       133           26.600000         0.018630012        62.252757575      -251.544710128      -251.526080116         9.618000000
       134           26.800000         0.018248499        60.977917991      -251.544516415      -251.526267917         9.880000000
       135           27.000000         0.018725986        62.573456742      -251.544324110      -251.525598124         9.664000000
       136           27.200000         0.018544168        61.965905289      -251.544129875      -251.525585707         9.587000000
       137           27.400000         0.017893747        59.792504978      -251.543936604      -251.526042856        10.211000000
       138           27.600000         0.018195325        60.800235699      -251.543744907      -251.525549582        10.573000000
       139           27.800000         0.018011329        60.185407630      -251.543550427      -251.525539098        10.510000000
       140           28.000000         0.017559112        58.674312132      -251.543354117      -251.525795005        10.539000000
       141           28.200000         0.017837990        59.606190445      -251.543154975      -251.525316985        10.541000000
       142           28.400000         0.017369038        58.039172290      -251.542950366      -251.525581328        10.565000000
       143           28.600000         0.017582595        58.752780932      -251.542744769      -251.525162174        10.534000000
       144           28.800000         0.017727134        59.235762002      -251.542538697      -251.524811563        10.506000000
       145           29.000000         0.018390475        61.452337334      -251.542331867      -251.523941391        10.440000000
       146           29.200000         0.018511171        61.855644647      -251.542123050      -251.523611880        10.477000000
       147           29.400000         0.018116748        60.537668142      -251.541913278      -251.523796530        10.483000000
       148           29.600000         0.018195640        60.801288480      -251.541702267      -251.523506627        10.463000000
       149           29.800000         0.018272794        61.059102902      -251.541488807      -251.523216013        10.399000000
       150           30.000000         0.018612014        62.192615599      -251.541270598      -251.522658584        10.442000000
       151           30.200000         0.019143040        63.967055515      -251.541047623      -251.521904582        10.430000000
       152           30.400000         0.019416047        64.879316341      -251.540821988      -251.521405941        10.480000000
       153           30.600000         0.019207207        64.181472103      -251.540594916      -251.521387708        10.518000000
       154           30.800000         0.018968813        63.384870865      -251.540369004      -251.521400191        10.534000000
       155           31.000000         0.018863416        63.032683587      -251.540147513      -251.521284096        10.488000000
       156           31.200000         0.019329904        64.591465837      -251.539929006      -251.520599102        10.469000000
       157           31.400000         0.018430962        61.587624080      -251.539714558      -251.521283596        10.563000000
       158           31.600000         0.018275699        61.068808935      -251.539502944      -251.521227245        10.585000000
       159           31.800000         0.018096889        60.471308075      -251.539289444      -251.521192555        10.592000000
       160           32.000000         0.017861065        59.683296482      -251.539084995      -251.521223930        10.620000000
       161           32.200000         0.017658286        59.005703231      -251.538888851      -251.521230566        10.629000000
       162           32.400000         0.017859577        59.678324420      -251.538687718      -251.520828141        10.607000000
       163           32.600000         0.016779280        56.068477718      -251.538489307      -251.521710027        10.653000000
       164           32.800000         0.016254405        54.314592244      -251.538302652      -251.522048247        10.642000000
       165           33.000000         0.016290482        54.435146782      -251.538122782      -251.521832299        10.618000000
       166           33.200000         0.016344601        54.615986807      -251.537945880      -251.521601278        10.654000000
       167           33.400000         0.017377568        58.067674859      -251.537768326      -251.520390758        10.681000000
       168           33.600000         0.017165082        57.357646985      -251.537590138      -251.520425056        10.642000000
       169           33.800000         0.017362707        58.018017941      -251.537416682      -251.520053975        10.616000000
       170           34.000000         0.017357966        58.002174903      -251.537244539      -251.519886573        10.602000000
       171           34.200000         0.017353097        57.985904277      -251.537070453      -251.519717356        10.627000000
       172           34.400000         0.017593348        58.788712176      -251.536899156      -251.519305808        10.599000000
       173           34.600000         0.017223494        57.552831880      -251.536734138      -251.519510644        10.588000000
       174           34.800000         0.017593825        58.790305226      -251.536576210      -251.518982386        10.602000000
       175           35.000000         0.018865612        63.040020519      -251.536420447      -251.517554835        10.593000000
       176           35.200000         0.018304542        61.165188977      -251.536268738      -251.517964195        10.577000000
       177           35.400000         0.018113560        60.527015436      -251.536127476      -251.518013916        10.630000000
       178           35.600000         0.019517833        65.219438774      -251.535993967      -251.516476134        10.512000000
       179           35.800000         0.020634714        68.951529616      -251.535854022      -251.515219308        10.497000000
       180           36.000000         0.021258422        71.035668891      -251.535706993      -251.514448571        10.416000000
       181           36.200000         0.020890967        69.807806153      -251.535562875      -251.514671908        10.467000000
       182           36.400000         0.020266208        67.720155887      -251.535422114      -251.515155906        10.452000000
       183           36.600000         0.021553938        72.023143165      -251.535280515      -251.513726578        10.441000000
       184           36.800000         0.022405231        74.867767059      -251.535137436      -251.512732204        10.469000000
       185           37.000000         0.022173095        74.092077124      -251.534992201      -251.512819106        10.486000000
       186           37.200000         0.022947378        76.679366063      -251.534843598      -251.511896221        10.450000000
       187           37.400000         0.023404766        78.207742669      -251.534696772      -251.511292006        10.498000000
       188           37.600000         0.023572292        78.767537421      -251.534552936      -251.510980644        10.001000000
       189           37.800000         0.022217964        74.242009199      -251.534406896      -251.512188932         9.912000000
       190           38.000000         0.021659575        72.376132908      -251.534259041      -251.512599466         9.878000000
       191           38.200000         0.021510614        71.878375551      -251.534115820      -251.512605206         9.715000000
       192           38.400000         0.021947852        73.339419049      -251.533974363      -251.512026511         9.952000000
       193           38.600000         0.022709458        75.884349912      -251.533828010      -251.511118552         9.806000000
       194           38.800000         0.022293561        74.494617976      -251.533685335      -251.511391774         9.937000000
       195           39.000000         0.022369871        74.749609373      -251.533553175      -251.511183304        10.102000000
       196           39.200000         0.022411810        74.889749891      -251.533423871      -251.511012061        10.016000000
       197           39.400000         0.022762687        76.062217767      -251.533294285      -251.510531598         9.841000000
       198           39.600000         0.022792875        76.163091831      -251.533161615      -251.510368739         9.808000000
       199           39.800000         0.022947859        76.680973929      -251.533030436      -251.510082577        10.054000000
       200           40.000000         0.022744854        76.002628601      -251.532911691      -251.510166837         9.887000000
       201           40.200000         0.022818705        76.249402325      -251.532804507      -251.509985802        10.112000000
       202           40.400000         0.022601793        75.524584340      -251.532702375      -251.510100582        10.085000000
       203           40.600000         0.022353879        74.696172857      -251.532607818      -251.510253939         9.995000000
       204           40.800000         0.022182726        74.124260411      -251.532522629      -251.510339903         9.799000000
       205           41.000000         0.021288623        71.136587537      -251.532443356      -251.511154732         9.913000000
       206           41.200000         0.021198764        70.836318584      -251.532366719      -251.511167955         9.910000000
       207           41.400000         0.020997747        70.164616465      -251.532286340      -251.511288592         9.833000000
       208           41.600000         0.020904746        69.853849195      -251.532196733      -251.511291987        10.410000000
       209           41.800000         0.020918397        69.899464185      -251.532105725      -251.511187329        10.200000000
       210           42.000000         0.020903947        69.851179039      -251.532015244      -251.511111297        10.118000000
       211           42.200000         0.020639399        68.967185757      -251.531921157      -251.511281758        10.056000000
       212           42.400000         0.020487912        68.460986955      -251.531831725      -251.511343813        10.001000000
       213           42.600000         0.020867504        69.729403726      -251.531745572      -251.510878068         9.896000000
       214           42.800000         0.020330235        67.934102856      -251.531668441      -251.511338206         9.690000000
       215           43.000000         0.020385139        68.117566326      -251.531594458      -251.511209319         9.881000000
       216           43.200000         0.020625761        68.921614030      -251.531508504      -251.510882743         9.838000000
       217           43.400000         0.021153897        70.686396969      -251.531415979      -251.510262081        10.290000000
       218           43.600000         0.020899073        69.834893402      -251.531321037      -251.510421964        10.125000000
       219           43.800000         0.021348220        71.335731528      -251.531228163      -251.509879943         9.995000000
       220           44.000000         0.021668123        72.404696690      -251.531142545      -251.509474422         9.969000000
       221           44.200000         0.021230873        70.943614585      -251.531065279      -251.509834405        10.004000000
       222           44.400000         0.021689637        72.476587325      -251.530996732      -251.509307095        10.026000000
       223           44.600000         0.022339047        74.646610324      -251.530930752      -251.508591705        10.029000000
       224           44.800000         0.022428356        74.945039921      -251.530864398      -251.508436042         9.923000000
       225           45.000000         0.023496924        78.515690672      -251.530798379      -251.507301455         9.941000000
       226           45.200000         0.023279394        77.788810195      -251.530730578      -251.507451183        10.112000000
       227           45.400000         0.022860241        76.388197634      -251.530664349      -251.507804107        10.003000000