       2
 i =       70, E =       -21.6614659169
  C         5.0        5.0        5.5639205
  O         5.0        5.0        4.4360795
