 DBCSR| CPU Multiplication driver                                           XSMM (U)
 DBCSR| Multrec recursion limit                                              512 (U)
 DBCSR| Multiplication stack size                                          30000 (D)
 DBCSR| Maximum elements for images                                    UNLIMITED (U)
 DBCSR| Multiplicative factor virtual images                                   1 (U)
 DBCSR| Use multiplication densification                                       F (D)
 DBCSR| Multiplication size stacks                                             3 (U)
 DBCSR| Use memory pool for CPU allocation                                     F (U)
 DBCSR| Number of 3D layers                                               SINGLE (U)
 DBCSR| Use MPI memory allocation                                              F (U)
 DBCSR| Use RMA algorithm                                                      F (U)
 DBCSR| Use Communication thread                                               T (U)
 DBCSR| Communication thread load                                             83 (D)
 DBCSR| MPI: My process id                                                     0
 DBCSR| MPI: Number of processes                                              48
 DBCSR| OMP: Current number of threads                                         2
 DBCSR| OMP: Max number of threads                                             2
 DBCSR| ACC: Number of devices/node                                            1
 DBCSR| ACC: Number of stack-buffers per thread                                8 (U)
 DBCSR| ACC: Avoid driver after busy                                           F (U)
 DBCSR| ACC: Process inhomogeneous stacks                                      T (U)
 DBCSR| ACC: Min. flop for processing                                          0 (U)
 DBCSR| ACC: Min. flop for sorting                                          4000 (U)
 DBCSR| ACC: Number of binning bins                                         4096 (U)
 DBCSR| ACC: Size of binning bins                                             16 (U)
 DBCSR| Split modifier for TAS multiplication algorithm                  1.0E+00 (U)


  **** **** ******  **  PROGRAM STARTED AT               2023-10-04 12:11:00.948
 ***** ** ***  *** **   PROGRAM STARTED ON                              nid02295
 **    ****   ******    PROGRAM STARTED BY                              glebreto
 ***** **    ** ** **   PROGRAM PROCESS ID                                 28810
  **** **  *******  **  PROGRAM STARTED IN /scratch/snx3000/glebreto/Method_pape
                                           r/Tutorials/Field/LR

 CP2K| version string:                 CP2K version 2023.2 (Development Version)
 CP2K| source code revision number:                                  git:9018eae
 CP2K| cp2kflags: omp libint fftw3 libxc pexsi elpa elpa_nvidia_gpu parallel sca
 CP2K|            lapack cosma xsmm dbcsr_acc max_contr=4 plumed2 spglib sirius
 CP2K|             libvori libbqb offload_cuda no_offload_pw spla_gemm_offloadin
 CP2K|            ng libvdwxc hdf5
 CP2K| is freely available from                            https://www.cp2k.org/
 CP2K| Program compiled at                         Tue Oct  3 12:07:04 CEST 2023
 CP2K| Program compiled on                                              daint105
 CP2K| Program compiled for                                        CRAY-XC50-gnu
 CP2K| Data directory path          /scratch/snx3000/glebreto/Software/cp2k/data
 CP2K| Input file name                                                  ./LR.inp

 GLOBAL| Force Environment number                                              1
 GLOBAL| Basis set file name                                        BASIS_PCSEG2
 GLOBAL| Potential file name            /scratch/snx3000/glebreto/Software/cp2k/
 GLOBAL| MM Potential file name                                     MM_POTENTIAL
 GLOBAL| Coordinate file name                            carbon-monoxide_opt.xyz
 GLOBAL| Method name                                                        CP2K
 GLOBAL| Project name                                                         LR
 GLOBAL| Run type                                                         ENERGY
 GLOBAL| FFT library                                                       FFTW3
 GLOBAL| Diagonalization library                                            ELPA
 GLOBAL| DGEMM library                                                      SPLA
 GLOBAL| Minimum number of eigenvectors for ELPA usage                        16
 GLOBAL| Orthonormality check for eigenvectors                          DISABLED
 GLOBAL| Matrix multiplication library                                     COSMA
 GLOBAL| All-to-all communication in single precision                          F
 GLOBAL| FFTs using library dependent lengths                                  F
 GLOBAL| Grid backend                                                       AUTO
 GLOBAL| Global print level                                               MEDIUM
 GLOBAL| MPI I/O enabled                                                       T
 GLOBAL| Total number of message passing processes                            48
 GLOBAL| Number of threads for this process                                    2
 GLOBAL| This output is from process                                           0
 GLOBAL| Stack size for threads created by OpenMP (OMP_STACKSIZE)        default
 GLOBAL| CPU model name                Intel(R) Xeon(R) CPU E5-2690 v3 @ 2.60GHz
 GLOBAL| CPUID                                                              1002

 MEMORY| system memory details [Kb]
 MEMORY|                        rank 0           min           max       average
 MEMORY| MemTotal             65740148      65740148      65740148      65740148
 MEMORY| MemFree              58859052      58859052      59654220      59524538
 MEMORY| Buffers                  7904          7260          9428          7767
 MEMORY| Cached                2864016       2190244       2864016       2306280
 MEMORY| Slab                   336872        251396        336872        266328
 MEMORY| SReclaimable            54708         51108         54708         52063
 MEMORY| MemLikelyFree        61785680      61785680      61918608      61890650


 *** Fundamental physical constants (SI units) ***

 *** Literature: B. J. Mohr and B. N. Taylor,
 ***             CODATA recommended values of the fundamental physical
 ***             constants: 2006, Web Version 5.1
 ***             http://physics.nist.gov/constants

 Speed of light in vacuum [m/s]                             2.99792458000000E+08
 Magnetic constant or permeability of vacuum [N/A**2]       1.25663706143592E-06
 Electric constant or permittivity of vacuum [F/m]          8.85418781762039E-12
 Planck constant (h) [J*s]                                  6.62606896000000E-34
 Planck constant (h-bar) [J*s]                              1.05457162825177E-34
 Elementary charge [C]                                      1.60217648700000E-19
 Electron mass [kg]                                         9.10938215000000E-31
 Electron g factor [ ]                                     -2.00231930436220E+00
 Proton mass [kg]                                           1.67262163700000E-27
 Fine-structure constant                                    7.29735253760000E-03
 Rydberg constant [1/m]                                     1.09737315685270E+07
 Avogadro constant [1/mol]                                  6.02214179000000E+23
 Boltzmann constant [J/K]                                   1.38065040000000E-23
 Atomic mass unit [kg]                                      1.66053878200000E-27
 Bohr radius [m]                                            5.29177208590000E-11

 *** Conversion factors ***

 [u] -> [a.u.]                                              1.82288848426455E+03
 [Angstrom] -> [Bohr] = [a.u.]                              1.88972613288564E+00
 [a.u.] = [Bohr] -> [Angstrom]                              5.29177208590000E-01
 [a.u.] -> [s]                                              2.41888432650478E-17
 [a.u.] -> [fs]                                             2.41888432650478E-02
 [a.u.] -> [J]                                              4.35974393937059E-18
 [a.u.] -> [N]                                              8.23872205491840E-08
 [a.u.] -> [K]                                              3.15774647902944E+05
 [a.u.] -> [kJ/mol]                                         2.62549961709828E+03
 [a.u.] -> [kcal/mol]                                       6.27509468713739E+02
 [a.u.] -> [Pa]                                             2.94210107994716E+13
 [a.u.] -> [bar]                                            2.94210107994716E+08
 [a.u.] -> [atm]                                            2.90362800883016E+08
 [a.u.] -> [eV]                                             2.72113838565563E+01
 [a.u.] -> [Hz]                                             6.57968392072181E+15
 [a.u.] -> [1/cm] (wave numbers)                            2.19474631370540E+05
 [a.u./Bohr**2] -> [1/cm]                                   5.14048714338585E+03
 

 CELL_TOP| Volume [angstrom^3]:                                      1000.000000
 CELL_TOP| Vector a [angstrom    10.000     0.000     0.000   |a| =    10.000000
 CELL_TOP| Vector b [angstrom     0.000    10.000     0.000   |b| =    10.000000
 CELL_TOP| Vector c [angstrom     0.000     0.000    10.000   |c| =    10.000000
 CELL_TOP| Angle (b,c), alpha [degree]:                                90.000000
 CELL_TOP| Angle (a,c), beta  [degree]:                                90.000000
 CELL_TOP| Angle (a,b), gamma [degree]:                                90.000000
 CELL_TOP| Numerically orthorhombic:                                         YES
 CELL_TOP| Periodicity                                                      NONE

 GENERATE|  Preliminary Number of Bonds generated:                             0
 GENERATE|  Achieved consistency in connectivity generation.

 CELL| Volume [angstrom^3]:                                          1000.000000
 CELL| Vector a [angstrom]:      10.000     0.000     0.000   |a| =    10.000000
 CELL| Vector b [angstrom]:       0.000    10.000     0.000   |b| =    10.000000
 CELL| Vector c [angstrom]:       0.000     0.000    10.000   |c| =    10.000000
 CELL| Angle (b,c), alpha [degree]:                                    90.000000
 CELL| Angle (a,c), beta  [degree]:                                    90.000000
 CELL| Angle (a,b), gamma [degree]:                                    90.000000
 CELL| Numerically orthorhombic:                                             YES
 CELL| Periodicity                                                          NONE

 CELL_REF| Volume [angstrom^3]:                                      1000.000000
 CELL_REF| Vector a [angstrom    10.000     0.000     0.000   |a| =    10.000000
 CELL_REF| Vector b [angstrom     0.000    10.000     0.000   |b| =    10.000000
 CELL_REF| Vector c [angstrom     0.000     0.000    10.000   |c| =    10.000000
 CELL_REF| Angle (b,c), alpha [degree]:                                90.000000
 CELL_REF| Angle (a,c), beta  [degree]:                                90.000000
 CELL_REF| Angle (a,b), gamma [degree]:                                90.000000
 CELL_REF| Numerically orthorhombic:                                         YES
 CELL_REF| Periodicity                                                      NONE

 *******************************************************************************
 *******************************************************************************
 **                                                                           **
 **     #####                         ##              ##                      **
 **    ##   ##            ##          ##              ##                      **
 **   ##     ##                       ##            ######                    **
 **   ##     ##  ##   ##  ##   #####  ##  ##   ####   ##    #####    #####    **
 **   ##     ##  ##   ##  ##  ##      ## ##   ##      ##   ##   ##  ##   ##   **
 **   ##  ## ##  ##   ##  ##  ##      ####     ###    ##   ######   ######    **
 **    ##  ###   ##   ##  ##  ##      ## ##      ##   ##   ##       ##        **
 **     #######   #####   ##   #####  ##  ##  ####    ##    #####   ##        **
 **           ##                                                    ##        **
 **                                                                           **
 **                                                ... make the atoms dance   **
 **                                                                           **
 **            Copyright (C) by CP2K developers group (2000-2023)             **
 **                      J. Chem. Phys. 152, 194103 (2020)                    **
 **                                                                           **
 *******************************************************************************

 *** WARNING in qs_environment.F:963 :: Automatic Generation of RI_XAS ***
 *** basis. This is experimental code.                                 ***


 *** WARNING in qs_environment.F:963 :: Automatic Generation of RI_XAS ***
 *** basis. This is experimental code.                                 ***


 DFT| Spin restricted Kohn-Sham (RKS) calculation                            RKS
 DFT| Multiplicity                                                             1
 DFT| Number of spin states                                                    1
 DFT| Charge                                                                   0
 DFT| Self-interaction correction (SIC)                                       NO
 DFT| Cutoffs: density                                              1.000000E-10
 DFT|          gradient                                             1.000000E-10
 DFT|          tau                                                  1.000000E-10
 DFT|          cutoff_smoothing_range                               0.000000E+00
 DFT| XC density smoothing                                                  NONE
 DFT| XC derivatives                                                          PW

 FUNCTIONAL| PBE:
 FUNCTIONAL| J.P.Perdew, K.Burke, M.Ernzerhof, Phys. Rev. Letter, vol. 77, n 18,
 FUNCTIONAL|  pp. 3865-3868, (1996)sx=0.550sc=1.000{spin unpolarized}           


 QS| Method:                                                                GAPW
 QS| Density plane wave grid type                        NON-SPHERICAL FULLSPACE
 QS| Number of grid levels:                                                    5
 QS| Density cutoff [a.u.]:                                                500.0
 QS| Multi grid cutoff [a.u.]: 1) grid level                               500.0
 QS|                           2) grid level                               166.7
 QS|                           3) grid level                                55.6
 QS|                           4) grid level                                18.5
 QS|                           5) grid level                                 6.2
 QS| Grid level progression factor:                                          3.0
 QS| Relative density cutoff [a.u.]:                                        30.0
 QS| Interaction thresholds: eps_pgf_orb:                                1.0E-05
 QS|                         eps_filter_matrix:                          0.0E+00
 QS|                         eps_core_charge:                            1.0E-12
 QS|                         eps_rho_gspace:                             1.0E-10
 QS|                         eps_rho_rspace:                             1.0E-10
 QS|                         eps_gvg_rspace:                             1.0E-05
 QS|                         eps_ppl:                                    1.0E-02
 QS|                         eps_ppnl:                                   1.0E-07
 QS| GAPW|      One center basis from orbital basis primitives
 QS| GAPW|                   eps_fit:                                    1.0E-06
 QS| GAPW|                   eps_iso:                                    1.0E-12
 QS| GAPW|                   eps_svd:                                    1.0E-08
 QS| GAPW|                   eps_cpc:                                    1.0E-10
 QS| GAPW|   atom-r-grid: quadrature:                                     GC_LOG
 QS| GAPW|      atom-s-grid:  max l :                                          6
 QS| GAPW|      max_l_rho0 :                                                   2


 ATOMIC KIND INFORMATION

  1. Atomic kind: C                                     Number of atoms:       1

     Orbital Basis Set                                                   pcseg-2

       Number of orbital shell sets:                                          10
       Number of orbital shells:                                              10
       Number of primitive Cartesian functions:                               20
       Number of Cartesian basis functions:                                   35
       Number of spherical basis functions:                                   30
       Norm type:                                                              2

       Normalised Cartesian orbitals:

                        Set   Shell   Orbital            Exponent    Coefficient

                          1       1    1s             7319.990000       0.349375
                                                      1098.180000       0.650557
                                                       250.014000       1.096680
                                                        70.758600       1.627573
                                                        22.859500       1.933206
                                                         8.039360       1.515585
                                                         2.893090       0.510144

                          2       1    1s                5.216400      -0.507287
                                                         0.556124       0.494060

                          3       1    1s                0.228813       0.235787

                          4       1    1s                0.093634       0.120638

                          5       1    1px              33.985500       1.362795
                                                         7.729570       1.535057
                                                         2.249540       1.244013
                                                         0.767681       0.729116
                          5       1    1py              33.985500       1.362795
                                                         7.729570       1.535057
                                                         2.249540       1.244013
                                                         0.767681       0.729116
                          5       1    1pz              33.985500       1.362795
                                                         7.729570       1.535057
                                                         2.249540       1.244013
                                                         0.767681       0.729116

                          6       1    1px               0.263283       0.268824
                          6       1    1py               0.263283       0.268824
                          6       1    1pz               0.263283       0.268824

                          7       1    1px               0.084874       0.065300
                          7       1    1py               0.084874       0.065300
                          7       1    1pz               0.084874       0.065300

                          8       1    1dx2              1.400000       2.965743
                          8       1    1dxy              1.400000       5.136818
                          8       1    1dxz              1.400000       5.136818
                          8       1    1dy2              1.400000       2.965743
                          8       1    1dyz              1.400000       5.136818
                          8       1    1dz2              1.400000       2.965743

                          9       1    1dx2              0.450000       0.406941
                          9       1    1dxy              0.450000       0.704842
                          9       1    1dxz              0.450000       0.704842
                          9       1    1dy2              0.450000       0.406941
                          9       1    1dyz              0.450000       0.704842
                          9       1    1dz2              0.450000       0.406941

                         10       1    1fx3              0.950000       1.311694
                         10       1    1fx2y             0.950000       2.933037
                         10       1    1fx2z             0.950000       2.933037
                         10       1    1fxy2             0.950000       2.933037
                         10       1    1fxyz             0.950000       5.080169
                         10       1    1fxz2             0.950000       2.933037
                         10       1    1fy3              0.950000       1.311694
                         10       1    1fy2z             0.950000       2.933037
                         10       1    1fyz2             0.950000       2.933037
                         10       1    1fz3              0.950000       1.311694

     RI XAS Basis Set                                           C-RI-AUX-pcseg-2

       Number of orbital shell sets:                                           2
       Number of orbital shells:                                              38
       Number of primitive Cartesian functions:                               17
       Number of Cartesian basis functions:                                  185
       Number of spherical basis functions:                                  142
       Norm type:                                                              2

       Normalised Cartesian orbitals:

                        Set   Shell   Orbital            Exponent    Coefficient

                          1       1    1s              196.370739      37.386746
                                                       109.094855       0.000000
                                                        60.608253       0.000000
                                                        33.671252       0.000000
                                                        18.706251       0.000000
                                                        10.392362       0.000000
                                                         5.773534       0.000000
                                                         3.207519       0.000000
                                                         1.781955       0.000000
                                                         0.989975       0.000000
                                                         0.549986       0.000000
                                                         0.305548       0.000000
                                                         0.169749       0.000000

                          1       2    2s              196.370739    -101.284586
                                                       109.094855      69.474696
                                                        60.608253       0.000000
                                                        33.671252       0.000000
                                                        18.706251       0.000000
                                                        10.392362       0.000000
                                                         5.773534       0.000000
                                                         3.207519       0.000000
                                                         1.781955       0.000000
                                                         0.989975       0.000000
                                                         0.549986       0.000000
                                                         0.305548       0.000000
                                                         0.169749       0.000000

                          1       3    3s              196.370739     151.837866
                                                       109.094855    -204.133094
                                                        60.608253      77.148106
                                                        33.671252       0.000000
                                                        18.706251       0.000000
                                                        10.392362       0.000000
                                                         5.773534       0.000000
                                                         3.207519       0.000000
                                                         1.781955       0.000000
                                                         0.989975       0.000000
                                                         0.549986       0.000000
                                                         0.305548       0.000000
                                                         0.169749       0.000000

                          1       4    4s              196.370739    -166.786192
                                                       109.094855     313.881332
                                                        60.608253    -232.590659
                                                        33.671252      66.631040
                                                        18.706251       0.000000
                                                        10.392362       0.000000
                                                         5.773534       0.000000
                                                         3.207519       0.000000
                                                         1.781955       0.000000
                                                         0.989975       0.000000
                                                         0.549986       0.000000
                                                         0.305548       0.000000
                                                         0.169749       0.000000

                          1       5    5s              196.370739     153.814531
                                                       109.094855    -348.338372
                                                        60.608253     361.376085
                                                        33.671252    -203.056996
                                                        18.706251      50.339039
                                                        10.392362       0.000000
                                                         5.773534       0.000000
                                                         3.207519       0.000000
                                                         1.781955       0.000000
                                                         0.989975       0.000000
                                                         0.549986       0.000000
                                                         0.305548       0.000000
                                                         0.169749       0.000000

                          1       6    6s              196.370739    -128.524508
                                                       109.094855     322.727844
                                                        60.608253    -402.899674
                                                        33.671252     316.999640
                                                        18.706251    -154.185680
                                                        10.392362      35.361149
                                                         5.773534       0.000000
                                                         3.207519       0.000000
                                                         1.781955       0.000000
                                                         0.989975       0.000000
                                                         0.549986       0.000000
                                                         0.305548       0.000000
                                                         0.169749       0.000000

                          1       7    7s              196.370739     101.625154
                                                       109.094855    -270.252639
                                                        60.608253     374.077902
                                                        33.671252    -354.201177
                                                        18.706251     241.267765
                                                        10.392362    -108.583735
                                                         5.773534      23.871404
                                                         3.207519       0.000000
                                                         1.781955       0.000000
                                                         0.989975       0.000000
                                                         0.549986       0.000000
                                                         0.305548       0.000000
                                                         0.169749       0.000000

                          1       8    8s              196.370739     -77.931606
                                                       109.094855     213.917595
                                                        60.608253    -313.574399
                                                        33.671252     329.202870
                                                        18.706251    -269.875731
                                                        10.392362     170.112550
                                                         5.773534     -73.398324
                                                         3.207519      15.768425
                                                         1.781955       0.000000
                                                         0.989975       0.000000
                                                         0.549986       0.000000
                                                         0.305548       0.000000
                                                         0.169749       0.000000

                          1       9    9s              196.370739      58.760702
                                                       109.094855    -164.130210
                                                        60.608253     248.333031
                                                        33.671252    -276.093894
                                                        18.706251     250.957656
                                                        10.392362    -190.389481
                                                         5.773534     115.060792
                                                         3.207519     -48.517462
                                                         1.781955      10.292937
                                                         0.989975       0.000000
                                                         0.549986       0.000000
                                                         0.305548       0.000000
                                                         0.169749       0.000000

                          1      10   10s              196.370739     -43.896130
                                                       109.094855     123.787697
                                                        60.608253    -190.582971
                                                        33.671252     218.703080
                                                        18.706251    -210.523169
                                                        10.392362     177.089747
                                                         5.773534    -128.813238
                                                         3.207519      76.082097
                                                         1.781955     -31.681866
                                                         0.989975       6.675324
                                                         0.549986       0.000000
                                                         0.305548       0.000000
                                                         0.169749       0.000000

                          1      11   11s              196.370739      32.625178
                                                       109.094855     -92.485850
                                                        60.608253     143.756253
                                                        33.671252    -167.863245
                                                        18.706251     166.782000
                                                        10.392362    -148.575371
                                                         5.773534     119.831314
                                                         3.207519     -85.188856
                                                         1.781955      49.690343
                                                         0.989975     -20.550910
                                                         0.549986       4.313867
                                                         0.305548       0.000000
                                                         0.169749       0.000000

                          1      12   12s              196.370739     -24.180627
                                                       109.094855      68.743507
                                                        60.608253    -107.411668
                                                        33.671252     126.626177
                                                        18.706251    -128.019094
                                                        10.392362     117.712313
                                                         5.773534    -100.542974
                                                         3.207519      79.254520
                                                         1.781955     -55.642716
                                                         0.989975      32.235455
                                                         0.549986     -13.282285
                                                         0.305548       2.782411
                                                         0.169749       0.000000

                          1      13   13s              196.370739      17.894468
                                                       109.094855     -50.952023
                                                        60.608253      79.840149
                                                        33.671252     -94.615150
                                                        18.706251      96.572784
                                                        10.392362     -90.356600
                                                         5.773534      79.659963
                                                         3.207519     -66.499781
                                                         1.781955      51.768598
                                                         0.989975     -36.098536
                                                         0.549986      20.835219
                                                         0.305548      -8.567480
                                                         0.169749       1.792741

                          1      14    2px             196.370739    1047.818484
                                                       109.094855       0.000000
                                                        60.608253       0.000000
                                                        33.671252       0.000000
                                                        18.706251       0.000000
                                                        10.392362       0.000000
                                                         5.773534       0.000000
                                                         3.207519       0.000000
                                                         1.781955       0.000000
                                                         0.989975       0.000000
                                                         0.549986       0.000000
                                                         0.305548       0.000000
                                                         0.169749       0.000000
                          1      14    2py             196.370739    1047.818484
                                                       109.094855       0.000000
                                                        60.608253       0.000000
                                                        33.671252       0.000000
                                                        18.706251       0.000000
                                                        10.392362       0.000000
                                                         5.773534       0.000000
                                                         3.207519       0.000000
                                                         1.781955       0.000000
                                                         0.989975       0.000000
                                                         0.549986       0.000000
                                                         0.305548       0.000000
                                                         0.169749       0.000000
                          1      14    2pz             196.370739    1047.818484
                                                       109.094855       0.000000
                                                        60.608253       0.000000
                                                        33.671252       0.000000
                                                        18.706251       0.000000
                                                        10.392362       0.000000
                                                         5.773534       0.000000
                                                         3.207519       0.000000
                                                         1.781955       0.000000
                                                         0.989975       0.000000
                                                         0.549986       0.000000
                                                         0.305548       0.000000
                                                         0.169749       0.000000

                          1      15    3px             196.370739   -2151.191910
                                                       109.094855    1147.672518
                                                        60.608253       0.000000
                                                        33.671252       0.000000
                                                        18.706251       0.000000
                                                        10.392362       0.000000
                                                         5.773534       0.000000
                                                         3.207519       0.000000
                                                         1.781955       0.000000
                                                         0.989975       0.000000
                                                         0.549986       0.000000
                                                         0.305548       0.000000
                                                         0.169749       0.000000
                          1      15    3py             196.370739   -2151.191910
                                                       109.094855    1147.672518
                                                        60.608253       0.000000
                                                        33.671252       0.000000
                                                        18.706251       0.000000
                                                        10.392362       0.000000
                                                         5.773534       0.000000
                                                         3.207519       0.000000
                                                         1.781955       0.000000
                                                         0.989975       0.000000
                                                         0.549986       0.000000
                                                         0.305548       0.000000
                                                         0.169749       0.000000
                          1      15    3pz             196.370739   -2151.191910
                                                       109.094855    1147.672518
                                                        60.608253       0.000000
                                                        33.671252       0.000000
                                                        18.706251       0.000000
                                                        10.392362       0.000000
                                                         5.773534       0.000000
                                                         3.207519       0.000000
                                                         1.781955       0.000000
                                                         0.989975       0.000000
                                                         0.549986       0.000000
                                                         0.305548       0.000000
                                                         0.169749       0.000000

                          1      16    4px             196.370739    2719.980717
                                                       109.094855   -2734.964676
                                                        60.608253     833.391926
                                                        33.671252       0.000000
                                                        18.706251       0.000000
                                                        10.392362       0.000000
                                                         5.773534       0.000000
                                                         3.207519       0.000000
                                                         1.781955       0.000000
                                                         0.989975       0.000000
                                                         0.549986       0.000000
                                                         0.305548       0.000000
                                                         0.169749       0.000000
                          1      16    4py             196.370739    2719.980717
                                                       109.094855   -2734.964676
                                                        60.608253     833.391926
                                                        33.671252       0.000000
                                                        18.706251       0.000000
                                                        10.392362       0.000000
                                                         5.773534       0.000000
                                                         3.207519       0.000000
                                                         1.781955       0.000000
                                                         0.989975       0.000000
                                                         0.549986       0.000000
                                                         0.305548       0.000000
                                                         0.169749       0.000000
                          1      16    4pz             196.370739    2719.980717
                                                       109.094855   -2734.964676
                                                        60.608253     833.391926
                                                        33.671252       0.000000
                                                        18.706251       0.000000
                                                        10.392362       0.000000
                                                         5.773534       0.000000
                                                         3.207519       0.000000
                                                         1.781955       0.000000
                                                         0.989975       0.000000
                                                         0.549986       0.000000
                                                         0.305548       0.000000
                                                         0.169749       0.000000

                          1      17    5px             196.370739   -2671.564665
                                                       109.094855    3637.886096
                                                        60.608253   -2091.348953
                                                        33.671252     496.660531
                                                        18.706251       0.000000
                                                        10.392362       0.000000
                                                         5.773534       0.000000
                                                         3.207519       0.000000
                                                         1.781955       0.000000
                                                         0.989975       0.000000
                                                         0.549986       0.000000
                                                         0.305548       0.000000
                                                         0.169749       0.000000
                          1      17    5py             196.370739   -2671.564665
                                                       109.094855    3637.886096
                                                        60.608253   -2091.348953
                                                        33.671252     496.660531
                                                        18.706251       0.000000
                                                        10.392362       0.000000
                                                         5.773534       0.000000
                                                         3.207519       0.000000
                                                         1.781955       0.000000
                                                         0.989975       0.000000
                                                         0.549986       0.000000
                                                         0.305548       0.000000
                                                         0.169749       0.000000
                          1      17    5pz             196.370739   -2671.564665
                                                       109.094855    3637.886096
                                                        60.608253   -2091.348953
                                                        33.671252     496.660531
                                                        18.706251       0.000000
                                                        10.392362       0.000000
                                                         5.773534       0.000000
                                                         3.207519       0.000000
                                                         1.781955       0.000000
                                                         0.989975       0.000000
                                                         0.549986       0.000000
                                                         0.305548       0.000000
                                                         0.169749       0.000000

                          1      18    6px             196.370739    2283.294482
                                                       109.094855   -3648.609621
                                                        60.608253    2841.593868
                                                        33.671252   -1274.282390
                                                        18.706251     267.110292
                                                        10.392362       0.000000
                                                         5.773534       0.000000
                                                         3.207519       0.000000
                                                         1.781955       0.000000
                                                         0.989975       0.000000
                                                         0.549986       0.000000
                                                         0.305548       0.000000
                                                         0.169749       0.000000
                          1      18    6py             196.370739    2283.294482
                                                       109.094855   -3648.609621
                                                        60.608253    2841.593868
                                                        33.671252   -1274.282390
                                                        18.706251     267.110292
                                                        10.392362       0.000000
                                                         5.773534       0.000000
                                                         3.207519       0.000000
                                                         1.781955       0.000000
                                                         0.989975       0.000000
                                                         0.549986       0.000000
                                                         0.305548       0.000000
                                                         0.169749       0.000000
                          1      18    6pz             196.370739    2283.294482
                                                       109.094855   -3648.609621
                                                        60.608253    2841.593868
                                                        33.671252   -1274.282390
                                                        18.706251     267.110292
                                                        10.392362       0.000000
                                                         5.773534       0.000000
                                                         3.207519       0.000000
                                                         1.781955       0.000000
                                                         0.989975       0.000000
                                                         0.549986       0.000000
                                                         0.305548       0.000000
                                                         0.169749       0.000000

                          1      19    7px             196.370739   -1807.970879
                                                       109.094855    3147.484806
                                                        60.608253   -2876.771024
                                                        33.671252    1748.392514
                                                        18.706251    -692.502472
                                                        10.392362     136.086524
                                                         5.773534       0.000000
                                                         3.207519       0.000000
                                                         1.781955       0.000000
                                                         0.989975       0.000000
                                                         0.549986       0.000000
                                                         0.305548       0.000000
                                                         0.169749       0.000000
                          1      19    7py             196.370739   -1807.970879
                                                       109.094855    3147.484806
                                                        60.608253   -2876.771024
                                                        33.671252    1748.392514
                                                        18.706251    -692.502472
                                                        10.392362     136.086524
                                                         5.773534       0.000000
                                                         3.207519       0.000000
                                                         1.781955       0.000000
                                                         0.989975       0.000000
                                                         0.549986       0.000000
                                                         0.305548       0.000000
                                                         0.169749       0.000000
                          1      19    7pz             196.370739   -1807.970879
                                                       109.094855    3147.484806
                                                        60.608253   -2876.771024
                                                        33.671252    1748.392514
                                                        18.706251    -692.502472
                                                        10.392362     136.086524
                                                         5.773534       0.000000
                                                         3.207519       0.000000
                                                         1.781955       0.000000
                                                         0.989975       0.000000
                                                         0.549986       0.000000
                                                         0.305548       0.000000
                                                         0.169749       0.000000

                          1      20    8px             196.370739    1373.465805
                                                       109.094855   -2503.006571
                                                        60.608253    2492.244257
                                                        33.671252   -1777.832990
                                                        18.706251     954.637658
                                                        10.392362    -354.630182
                                                         5.773534      67.379473
                                                         3.207519       0.000000
                                                         1.781955       0.000000
                                                         0.989975       0.000000
                                                         0.549986       0.000000
                                                         0.305548       0.000000
                                                         0.169749       0.000000
                          1      20    8py             196.370739    1373.465805
                                                       109.094855   -2503.006571
                                                        60.608253    2492.244257
                                                        33.671252   -1777.832990
                                                        18.706251     954.637658
                                                        10.392362    -354.630182
                                                         5.773534      67.379473
                                                         3.207519       0.000000
                                                         1.781955       0.000000
                                                         0.989975       0.000000
                                                         0.549986       0.000000
                                                         0.305548       0.000000
                                                         0.169749       0.000000
                          1      20    8pz             196.370739    1373.465805
                                                       109.094855   -2503.006571
                                                        60.608253    2492.244257
                                                        33.671252   -1777.832990
                                                        18.706251     954.637658
                                                        10.392362    -354.630182
                                                         5.773534      67.379473
                                                         3.207519       0.000000
                                                         1.781955       0.000000
                                                         0.989975       0.000000
                                                         0.549986       0.000000
                                                         0.305548       0.000000
                                                         0.169749       0.000000

                          1      21    9px             196.370739   -1020.392956
                                                       109.094855    1905.339000
                                                        60.608253   -1985.855654
                                                        33.671252    1543.294224
                                                        18.706251    -972.787407
                                                        10.392362     490.016158
                                                         5.773534    -176.042271
                                                         3.207519      32.862138
                                                         1.781955       0.000000
                                                         0.989975       0.000000
                                                         0.549986       0.000000
                                                         0.305548       0.000000
                                                         0.169749       0.000000
                          1      21    9py             196.370739   -1020.392956
                                                       109.094855    1905.339000
                                                        60.608253   -1985.855654
                                                        33.671252    1543.294224
                                                        18.706251    -972.787407
                                                        10.392362     490.016158
                                                         5.773534    -176.042271
                                                         3.207519      32.862138
                                                         1.781955       0.000000
                                                         0.989975       0.000000
                                                         0.549986       0.000000
                                                         0.305548       0.000000
                                                         0.169749       0.000000
                          1      21    9pz             196.370739   -1020.392956
                                                       109.094855    1905.339000
                                                        60.608253   -1985.855654
                                                        33.671252    1543.294224
                                                        18.706251    -972.787407
                                                        10.392362     490.016158
                                                         5.773534    -176.042271
                                                         3.207519      32.862138
                                                         1.781955       0.000000
                                                         0.989975       0.000000
                                                         0.549986       0.000000
                                                         0.305548       0.000000
                                                         0.169749       0.000000

                          1      22   10px             196.370739     178.285147
                                                       109.094855    -337.217454
                                                        60.608253     360.103337
                                                        33.671252    -292.937068
                                                        18.706251     201.170269
                                                        10.392362    -118.964347
                                                         5.773534      57.960673
                                                         3.207519     -20.461164
                                                         1.781955       3.784287
                                                         0.989975       0.334993
                                                         0.549986       0.160674
                                                         0.305548       0.077064
                                                         0.169749       0.036963
                          1      22   10py             196.370739     178.285147
                                                       109.094855    -337.217454
                                                        60.608253     360.103337
                                                        33.671252    -292.937068
                                                        18.706251     201.170269
                                                        10.392362    -118.964347
                                                         5.773534      57.960673
                                                         3.207519     -20.461164
                                                         1.781955       3.784287
                                                         0.989975       0.334993
                                                         0.549986       0.160674
                                                         0.305548       0.077064
                                                         0.169749       0.036963
                          1      22   10pz             196.370739     178.285147
                                                       109.094855    -337.217454
                                                        60.608253     360.103337
                                                        33.671252    -292.937068
                                                        18.706251     201.170269
                                                        10.392362    -118.964347
                                                         5.773534      57.960673
                                                         3.207519     -20.461164
                                                         1.781955       3.784287
                                                         0.989975       0.334993
                                                         0.549986       0.160674
                                                         0.305548       0.077064
                                                         0.169749       0.036963

                          1      23    3dx2            196.370739   16954.844491
                                                       109.094855       0.000000
                                                        60.608253       0.000000
                                                        33.671252       0.000000
                                                        18.706251       0.000000
                                                        10.392362       0.000000
                                                         5.773534       0.000000
                                                         3.207519       0.000000
                                                         1.781955       0.000000
                                                         0.989975       0.000000
                                                         0.549986       0.000000
                                                         0.305548       0.000000
                                                         0.169749       0.000000
                          1      23    3dxy            196.370739   29366.652092
                                                       109.094855       0.000000
                                                        60.608253       0.000000
                                                        33.671252       0.000000
                                                        18.706251       0.000000
                                                        10.392362       0.000000
                                                         5.773534       0.000000
                                                         3.207519       0.000000
                                                         1.781955       0.000000
                                                         0.989975       0.000000
                                                         0.549986       0.000000
                                                         0.305548       0.000000
                                                         0.169749       0.000000
                          1      23    3dxz            196.370739   29366.652092
                                                       109.094855       0.000000
                                                        60.608253       0.000000
                                                        33.671252       0.000000
                                                        18.706251       0.000000
                                                        10.392362       0.000000
                                                         5.773534       0.000000
                                                         3.207519       0.000000
                                                         1.781955       0.000000
                                                         0.989975       0.000000
                                                         0.549986       0.000000
                                                         0.305548       0.000000
                                                         0.169749       0.000000
                          1      23    3dy2            196.370739   16954.844491
                                                       109.094855       0.000000
                                                        60.608253       0.000000
                                                        33.671252       0.000000
                                                        18.706251       0.000000
                                                        10.392362       0.000000
                                                         5.773534       0.000000
                                                         3.207519       0.000000
                                                         1.781955       0.000000
                                                         0.989975       0.000000
                                                         0.549986       0.000000
                                                         0.305548       0.000000
                                                         0.169749       0.000000
                          1      23    3dyz            196.370739   29366.652092
                                                       109.094855       0.000000
                                                        60.608253       0.000000
                                                        33.671252       0.000000
                                                        18.706251       0.000000
                                                        10.392362       0.000000
                                                         5.773534       0.000000
                                                         3.207519       0.000000
                                                         1.781955       0.000000
                                                         0.989975       0.000000
                                                         0.549986       0.000000
                                                         0.305548       0.000000
                                                         0.169749       0.000000
                          1      23    3dz2            196.370739   16954.844491
                                                       109.094855       0.000000
                                                        60.608253       0.000000
                                                        33.671252       0.000000
                                                        18.706251       0.000000
                                                        10.392362       0.000000
                                                         5.773534       0.000000
                                                         3.207519       0.000000
                                                         1.781955       0.000000
                                                         0.989975       0.000000
                                                         0.549986       0.000000
                                                         0.305548       0.000000
                                                         0.169749       0.000000

                          1      24    4dx2            196.370739  -28772.908279
                                                       109.094855   11939.279475
                                                        60.608253       0.000000
                                                        33.671252       0.000000
                                                        18.706251       0.000000
                                                        10.392362       0.000000
                                                         5.773534       0.000000
                                                         3.207519       0.000000
                                                         1.781955       0.000000
                                                         0.989975       0.000000
                                                         0.549986       0.000000
                                                         0.305548       0.000000
                                                         0.169749       0.000000
                          1      24    4dxy            196.370739  -49836.139020
                                                       109.094855   20679.438657
                                                        60.608253       0.000000
                                                        33.671252       0.000000
                                                        18.706251       0.000000
                                                        10.392362       0.000000
                                                         5.773534       0.000000
                                                         3.207519       0.000000
                                                         1.781955       0.000000
                                                         0.989975       0.000000
                                                         0.549986       0.000000
                                                         0.305548       0.000000
                                                         0.169749       0.000000
                          1      24    4dxz            196.370739  -49836.139020
                                                       109.094855   20679.438657
                                                        60.608253       0.000000
                                                        33.671252       0.000000
                                                        18.706251       0.000000
                                                        10.392362       0.000000
                                                         5.773534       0.000000
                                                         3.207519       0.000000
                                                         1.781955       0.000000
                                                         0.989975       0.000000
                                                         0.549986       0.000000
                                                         0.305548       0.000000
                                                         0.169749       0.000000
                          1      24    4dy2            196.370739  -28772.908279
                                                       109.094855   11939.279475
                                                        60.608253       0.000000
                                                        33.671252       0.000000
                                                        18.706251       0.000000
                                                        10.392362       0.000000
                                                         5.773534       0.000000
                                                         3.207519       0.000000
                                                         1.781955       0.000000
                                                         0.989975       0.000000
                                                         0.549986       0.000000
                                                         0.305548       0.000000
                                                         0.169749       0.000000
                          1      24    4dyz            196.370739  -49836.139020
                                                       109.094855   20679.438657
                                                        60.608253       0.000000
                                                        33.671252       0.000000
                                                        18.706251       0.000000
                                                        10.392362       0.000000
                                                         5.773534       0.000000
                                                         3.207519       0.000000
                                                         1.781955       0.000000
                                                         0.989975       0.000000
                                                         0.549986       0.000000
                                                         0.305548       0.000000
                                                         0.169749       0.000000
                          1      24    4dz2            196.370739  -28772.908279
                                                       109.094855   11939.279475
                                                        60.608253       0.000000
                                                        33.671252       0.000000
                                                        18.706251       0.000000
                                                        10.392362       0.000000
                                                         5.773534       0.000000
                                                         3.207519       0.000000
                                                         1.781955       0.000000
                                                         0.989975       0.000000
                                                         0.549986       0.000000
                                                         0.305548       0.000000
                                                         0.169749       0.000000

                          1      25    5dx2            196.370739   31982.441057
                                                       109.094855  -24092.862332
                                                        60.608253    5909.800021
                                                        33.671252       0.000000
                                                        18.706251       0.000000
                                                        10.392362       0.000000
                                                         5.773534       0.000000
                                                         3.207519       0.000000
                                                         1.781955       0.000000
                                                         0.989975       0.000000
                                                         0.549986       0.000000
                                                         0.305548       0.000000
                                                         0.169749       0.000000
                          1      25    5dxy            196.370739   55395.212861
                                                       109.094855  -41730.061659
                                                        60.608253   10236.073898
                                                        33.671252       0.000000
                                                        18.706251       0.000000
                                                        10.392362       0.000000
                                                         5.773534       0.000000
                                                         3.207519       0.000000
                                                         1.781955       0.000000
                                                         0.989975       0.000000
                                                         0.549986       0.000000
                                                         0.305548       0.000000
                                                         0.169749       0.000000
                          1      25    5dxz            196.370739   55395.212861
                                                       109.094855  -41730.061659
                                                        60.608253   10236.073898
                                                        33.671252       0.000000
                                                        18.706251       0.000000
                                                        10.392362       0.000000
                                                         5.773534       0.000000
                                                         3.207519       0.000000
                                                         1.781955       0.000000
                                                         0.989975       0.000000
[...]


  # Create and initialize the XAS_TDP environment

  XAS_TDP| Reference calculation: Restricted Closed-Shell Kohn-Sham
  XAS_TDP| Tamm-Dancoff Approximation (TDA): Off
  XAS_TDP| Transition Dipole Representation: LENGTH
  XAS_TDP| EPS_PGF_XAS: 1.0E-05 (= EPS_PGF_ORB)
  XAS_TDP| EPS_FILTER: 1.0E-10
  XAS_TDP| Radial Grid(s) Info: Kind,  na,  nr
                                   C, 974, 3000
                                   O, 974, 3000

  XAS_TDP| RI Region's Radius:  0.00 Ang
  XAS_TDP| XC Kernel Functional(s) used for the kernel:

 FUNCTIONAL| PBE:
 FUNCTIONAL| J.P.Perdew, K.Burke, M.Ernzerhof, Phys. Rev. Letter, vol. 77, n 18,
 FUNCTIONAL|  pp. 3865-3868, (1996)sx=0.550sc=1.000{spin polarized}             

  XAS_TDP| Exact Exchange Kernel: Yes 

  EXACT_EXCHANGE| Scale: 0.450
  EXACT_EXCHANGE| Potential: Truncated Coulomb
  EXACT_EXCHANGE| Range:  7.00, (Ang)
  EXACT_EXCHANGE| T_C_G_DATA: t_c_g.dat
  EXACT_EXCHANGE| EPS_SCREENING: 1.0E-08

  XAS_TDP| Overlap matrix occupation:  1.00

  # Assign the relevant subset of the    7  lowest energy MOs to excited atoms


                    Associated    Associated        Distance to   MO spread (Ang^2)
  Spin  MO index    atom index     atom kind    MO center (Ang)   -w_i ln(|z_ij|^2)
  ---------------------------------------------------------------------------------
     1         1             2             O          1.249E-04           1.503E-02
     1         3             2             O          3.170E-01           4.181E-01
     1         4             2             O          2.225E-02           7.526E-01
     1         5             2             O          2.820E-01           7.823E-01
     1         6             2             O          2.820E-01           7.823E-01
  ---------------------------------------------------------------------------------


  # Integrating the xc kernel on the atomic grids ...

      Excited atom, natoms in RI_REGION:
      ---------------------------------
                 2                    1

  # Computing the RI 3-center Coulomb integrals ...

  # Computing the RI 3-center Exchange integrals for batch    1(/   1) of 1 atoms of kind: O

  # Start of calculations for donor state of type 1s for atom   2 of kind O

    The following canonical MO(s) have been associated with the donor state(s)
    based on the overlap with the components of a minimal STO basis: 
                                             Spin   MO index     overlap(sum)
                                                1          1          0.99955
     
    The next best overlap for spin 1 is 0.04266 for MO with index    3
     
    Mulliken population analysis retricted to the associated MO(s) yields: 
                                                  Spin  MO index     charge
                                                     1         1      1.000

    Calculations done: 

    First singlet XAS excitation energy (eV):                528.982511

  !===========================================================================!
  !     End of TDDFPT driven X-rays absorption spectroscopy calculations      !
  !===========================================================================!


 ENERGY| Total FORCE_EVAL ( QS ) energy [a.u.]:             -113.226671739223846

 -------------------------------------------------------------------------------
 -                                                                             -
 -                                DBCSR STATISTICS                             -
 -                                                                             -
 -------------------------------------------------------------------------------
 COUNTER                                    TOTAL       BLAS       SMM       ACC
 flops     7 x     7 x     7                 1372       0.0%      0.0%    100.0%
 flops    30 x     1 x    30                28800       0.0%    100.0%      0.0%
 flops     7 x     7 x    30                58800       0.0%      0.0%    100.0%
 flops    30 x     7 x     7                76440       0.0%      0.0%    100.0%
 flops    30 x    30 x     7               151200       0.0%      0.0%    100.0%
 flops    30 x    28 x    30               604800       0.0%      0.0%    100.0%
 flops    30 x    32 x    30               691200       0.0%      0.0%    100.0%
 flops    30 x     7 x    30              1209600       0.0%      0.0%    100.0%
 flops    30 x    30 x   142              3067200       0.0%      0.0%    100.0%
 flops    30 x    30 x    30              4860000       0.0%      0.0%    100.0%
 flops inhomo. stacks                           0       0.0%      0.0%      0.0%
 flops total                        10.749412E+06       0.0%      0.3%     99.7%
 flops max/rank                      5.918212E+06       0.0%      0.5%     99.5%
 matmuls inhomo. stacks                         0       0.0%      0.0%      0.0%
 matmuls total                                298       0.0%      5.4%     94.6%
 number of processed stacks                   165       0.0%      4.8%     95.2%
 average stack size                                     0.0       2.0       1.8
 marketing flops                    14.196892E+06
 -------------------------------------------------------------------------------
 # multiplications                             76
 max memory usage/rank               1.412391E+09
 # max total images/rank                        3
 # max 3D layers                                1
 # MPI messages exchanged                   72960
 MPI messages size (bytes):
  total size                        19.194104E+06
  min size                           0.000000E+00
  max size                          68.160000E+03
  average size                     263.077087E+00
 MPI breakdown and total messages size (bytes):
             size <=      128               71057                        0
       128 < size <=     8192                 906                  2708984
      8192 < size <=    32768                 946                 13622400
     32768 < size <=   131072                  51                  2862720
    131072 < size <=  4194304                   0                        0
   4194304 < size <= 16777216                   0                        0
  16777216 < size                               0                        0
 -------------------------------------------------------------------------------

 *** WARNING in dbcsr_mm.F:291 :: Using a non-square number of MPI ranks ***
 *** might lead to poor performance. Used ranks: 48 Suggested: 49 100    ***

 -------------------------------------------------------------------------------
 -                                                                             -
 -                      DBCSR MESSAGE PASSING PERFORMANCE                      -
 -                                                                             -
 -------------------------------------------------------------------------------
 ROUTINE             CALLS      AVE VOLUME [Bytes]
 MP_Bcast               11                     12.
 MP_Allreduce          300                     10.
 MP_Alltoall           840                   7012.
 MP_ISend             3384                    864.
 MP_IRecv             3362                    511.
 -------------------------------------------------------------------------------

 -------------------------------------------------------------------------------
 -                                                                             -
 -                                DBM STATISTICS                               -
 -                                                                             -
 -------------------------------------------------------------------------------
    M  x    N  x    K                                          COUNT     PERCENT
 -------------------------------------------------------------------------------

 -------------------------------------------------------------------------------
 -                                                                             -
 -                                GRID STATISTICS                              -
 -                                                                             -
 -------------------------------------------------------------------------------
 LP    KERNEL             BACKEND                              COUNT     PERCENT
 1     collocate ortho    GPU                                    432      14.23%
 2     collocate ortho    GPU                                    408      13.44%
 3     collocate ortho    GPU                                    300       9.88%
 2     collocate general  CPU                                    288       9.49%
 2     integrate general  CPU                                    288       9.49%
 0     collocate ortho    GPU                                    244       8.04%
 1     integrate ortho    GPU                                    216       7.11%
 2     integrate ortho    GPU                                    204       6.72%
 3     integrate ortho    GPU                                    150       4.94%
 4     collocate ortho    GPU                                    144       4.74%
 0     integrate ortho    GPU                                    122       4.02%
 4     integrate ortho    GPU                                     72       2.37%
 5     collocate ortho    GPU                                     48       1.58%
 0     collocate ortho    CPU                                     42       1.38%
 1     collocate ortho    CPU                                     24       0.79%
 5     integrate ortho    GPU                                     24       0.79%
 6     collocate ortho    GPU                                     12       0.40%
 2     collocate ortho    CPU                                      8       0.26%
 6     integrate ortho    GPU                                      6       0.20%
 3     collocate ortho    CPU                                      4       0.13%
 -------------------------------------------------------------------------------

 MEMORY| Estimated peak process memory [MiB]                                1348

 -------------------------------------------------------------------------------
 ----                             MULTIGRID INFO                            ----
 -------------------------------------------------------------------------------
 count for grid        1:         283600          cutoff [a.u.]          500.00
 count for grid        2:          50888          cutoff [a.u.]          166.67
 count for grid        3:          47614          cutoff [a.u.]           55.56
 count for grid        4:          13571          cutoff [a.u.]           18.52
 count for grid        5:           2308          cutoff [a.u.]            6.17
 total gridlevel count  :         397981

 -------------------------------------------------------------------------------
 -                                                                             -
 -                         MESSAGE PASSING PERFORMANCE                         -
 -                                                                             -
 -------------------------------------------------------------------------------

 ROUTINE             CALLS      AVE VOLUME [Bytes]
 MP_Group               20
 MP_Bcast              104                1340944.
 MP_Allreduce          837                 188038.
 MP_Sync                32
 MP_Alltoall           127               12664265.
 MP_SendRecv           846                  26347.
 MP_ISendRecv          658                  17755.
 MP_Wait              1232
 MP_comm_split          13
 MP_ISend              485                 400441.
 MP_IRecv              484                 401411.
 MP_Write_All            2                 242688.
 -------------------------------------------------------------------------------


 -------------------------------------------------------------------------------
 -                                                                             -
 -                           R E F E R E N C E S                               -
 -                                                                             -
 -------------------------------------------------------------------------------
 
 CP2K version 2023.2 (Development Version), the CP2K developers group (2023).
 CP2K is freely available from https://www.cp2k.org/ .

 Bussy, Augustin; Hutter, Juerg. 
 Phys. Chem. Chem. Phys., 23 (8), 4736-4746 (2021). 
 Efficient and low-scaling linear-response time-dependent density
 functional theory implementation for core-level spectroscopy of
 large and periodic systems.
 https://doi.org/10.1039/D0CP06164F

 Kuehne,Thomas D.; Iannuzzi,Marcella; Del Ben,Mauro;
 Rybkin,Vladimir V.; Seewald,Patrick; Stein,Frederick; Laino,Teodoro;
 Khaliullin,Rustam Z.; Schuett,Ole; Schiffmann,Florian; Golze,Dorothea;
 Wilhelm,Jan; Chulkov,Sergey; Bani-Hashemian,Mohammad Hossein;
 Weber,Valery; Borstnik,Urban; Taillefumier,Mathieu;
 Jakobovits,Alice Shoshana; Lazzaro,Alfio; Pabst,Hans; Mueller,Tiziano;
 Schade,Robert; Guidon,Manuel; Andermatt,Samuel; Holmberg,Nico;
 Schenter,Gregory K.; Hehn,Anna; Bussy,Augustin; Belleflamme,Fabian;
 Tabacchi,Gloria; Gloess,Andreas; Lass,Michael; Bethune,Iain;
 Mundy,Christopher J.; Plessl,Christian; Watkins,Matt;
 VandeVondele,Joost; Krack,Matthias; Hutter,Juerg. 
 The Journal of Chemical Physics, 152 (19), (2020). 
 CP2K: An electronic structure and molecular dynamics software package -
 Quickstep: Efficient and accurate electronic structure calculations.
 https://doi.org/10.1063/5.0007045

 Stoychev, Georgi L.; Auer, Alexander A.; Neese, Frank. 
 Journal of Chemical Theory and Computation, 13 (2), 554-562 (2017). 
 Automatic Generation of Auxiliary Basis Sets.
 https://doi.org/10.1021/acs.jctc.6b01041

 Schuett, Ole; Messmer, Peter; Hutter, Juerg; VandeVondele, Joost. 
 Electronic Structure Calculations on Graphics Processing Units, John
 Wiley & Sons, Ltd, 173-190 (2016). 
 GPU-Accelerated Sparse Matrix-Matrix Multiplication for
 Linear Scaling Density Functional Theory.
 https://doi.org/10.1002/9781118670712.ch8

 Heinecke, A; Henry, G; Hutchinson, M; Pabst, H. 
 Proceedings of Intl. Supercomputing Conference, 981-991 (2016). 
 LIBXSMM: Accelerating Small Matrix Multiplications
 by Runtime Code Generation.
 https://doi.org/10.1109/SC.2016.83

 Borstnik, U; VandeVondele, J; Weber, V; Hutter, J. 
 PARALLEL COMPUTING, 40 (5-6), 47-58 (2014). 
 Sparse matrix multiplication: The distributed block-compressed sparse
 row library.
 https://doi.org/10.1016/j.parco.2014.03.012

 Hutter, J; Iannuzzi, M; Schiffmann, F; VandeVondele, J. 
 WIREs Comput Mol Sci., 4 (1), 15-25 (2014). 
 CP2K: atomistic simulations of condensed matter systems.
 https://doi.org/10.1002/wcms.1159

 Marek, A; Blum, V; Johanni, R; Havu, V; Lang, B; Auckenthaler, T;
 Heinecke, A; Bungartz, H; Lederer, H. 
 Journal of Physics: Condensed Matter, 26 (21), (2014). 
 The ELPA library: scalable parallel eigenvalue solutions for
 electronic structure
 theory and computational science.
 https://doi.org/10.1088/0953-8984/26/21/213201

 Guidon, M; Hutter, J; VandeVondele, J. 
 JOURNAL OF CHEMICAL THEORY AND COMPUTATION, 5 (11), 3010-3021 (2009). 
 Robust Periodic Hartree-Fock Exchange for Large-Scale Simulations Using
 Gaussian Basis Sets.
 https://doi.org/10.1021/ct900494g

 Guidon, M; Schiffmann, F; Hutter, J; VandeVondele, J. 
 JOURNAL OF CHEMICAL PHYSICS, 128 (21), 214104 (2008). 
 Ab initio molecular dynamics using hybrid density functionals.
 https://doi.org/10.1063/1.2931945

 Genovese, L; Deutsch, T; Goedecker, S. 
 JOURNAL OF CHEMICAL PHYSICS, 127 (5), 054704 (2007). 
 Efficient and accurate three-dimensional Poisson solver for surface
 problems.
 https://doi.org/10.1063/1.2754685

 Genovese, L; Deutsch, T; Neelov, A; Goedecker, S; Beylkin, G. 
 JOURNAL OF CHEMICAL PHYSICS, 125 (7), 074105 (2006). 
 Efficient solution of Poisson's equation with free boundary conditions.
 https://doi.org/10.1063/1.2335442

 Frigo, M; Johnson, SG. 
 PROCEEDINGS OF THE IEEE, 93 (2), 216-231 (2005). 
 The design and implementation of FFTW3.
 https://doi.org/10.1109/JPROC.2004.840301

 VandeVondele, J; Hutter, J. 
 JOURNAL OF CHEMICAL PHYSICS, 118 (10), 4365-4369 (2003). 
 An efficient orbital transformation method for electronic structure
 calculations.
 https://doi.org/10.1063/1.1543154

 Lippert, G; Hutter, J; Parrinello, M. 
 THEORETICAL CHEMISTRY ACCOUNTS, 103 (2), 124-140 (1999). 
 The Gaussian and augmented-plane-wave density functional method for ab
 initio molecular dynamics simulations.
 https://doi.org/10.1007/s002140050523

 Krack, M; Parrinello, M. 
 PHYSICAL CHEMISTRY CHEMICAL PHYSICS, 2 (10), 2105-2112 (2000). 
 All-electron ab-initio molecular dynamics.
 https://doi.org/10.1039/b001167n

 Perdew, JP; Burke, K; Ernzerhof, M. 
 PHYSICAL REVIEW LETTERS, 77 (18), 3865-3868 (1996). 
 Generalized gradient approximation made simple.
 https://doi.org/10.1103/PhysRevLett.77.3865


 -------------------------------------------------------------------------------
 -                                                                             -
 -                                T I M I N G                                  -
 -                                                                             -
 -------------------------------------------------------------------------------
 SUBROUTINE                       CALLS  ASD         SELF TIME        TOTAL TIME
                                MAXIMUM       AVERAGE  MAXIMUM  AVERAGE  MAXIMUM
 CP2K                                 1  1.0    0.032    0.081  113.779  113.780
 qs_energies                          1  2.0    0.001    0.005  113.109  113.301
 qs_energies_properties               1  3.0    0.000    0.001  105.062  105.253
 xas_tdp                              1  4.0    0.281    0.883  105.061  105.252
 integrate_fxc_atoms                  1  5.0    0.147    0.194  100.784  100.784
 integrate_gga_fxc                    1  6.0   22.841   26.439   96.326   96.348
 get_vxc_vxg                        225  7.0   72.056   75.611   72.056   75.611
 scf_env_do_scf                       1  3.0    0.000    0.001    6.725    6.725
 qs_ks_update_qs_env                  4  5.0    0.000    0.000    5.591    5.592
 rebuild_ks_matrix                    3  6.0    0.000    0.000    5.589    5.590
 qs_ks_build_kohn_sham_matrix         3  7.0    0.001    0.002    5.589    5.590
 init_scf_loop                        1  4.0    0.000    0.003    5.451    5.452
 mp_sum_dm                          197  7.0    1.519    4.997    1.519    4.997
 hfx_ks_matrix                        3  8.0    0.000    0.000    3.870    3.882
 integrate_four_center                3  9.0    0.123    0.880    3.870    3.882
 dbcsr_multiply_generic              76  8.4    0.003    0.004    1.990    3.068
 mp_waitall_1                      6828 12.4    1.345    3.002    1.345    3.002
 multiply_cannon                     76  9.4    0.006    0.007    1.627    2.980
 multiply_cannon_loop                76 10.4    0.034    0.039    1.577    2.936
 multiply_cannon_metrocomm3         912 11.4    0.002    0.002    1.060    2.834
 -------------------------------------------------------------------------------

 The number of warnings for this run is : 3
 
 -------------------------------------------------------------------------------
  **** **** ******  **  PROGRAM ENDED AT                 2023-10-04 12:18:34.009
 ***** ** ***  *** **   PROGRAM RAN ON                                  nid02295
 **    ****   ******    PROGRAM RAN BY                                  glebreto
 ***** **    ** ** **   PROGRAM PROCESS ID                                 29973
  **** **  *******  **  PROGRAM STOPPED IN /scratch/snx3000/glebreto/Method_pape
                                           r/Tutorials/Field/LR
