     592
 i =       11, E =      -176.6533806864
 Au         2.5299921202        0.8962340827        7.7899738251
 Au         3.9714458802        3.3929788937        7.7902433250
 Au         5.4134065410        0.8955566870        7.7912843705
 Au         6.8547517896        3.3924917738        7.7908802501
 Au         8.2967653917        0.8956449098        7.7912871671
 Au         9.7382627638        3.3931189140        7.7899747199
 Au        11.1801134341        0.8966588365        7.7895217965
 Au        12.6218278228        3.3945730751        7.7873700973
 Au        14.0637333938        0.8983293592        7.7866435407
 Au        15.5056350267        3.3961866495        7.7844160787
 Au        16.9477930302        0.8997839424        7.7841562166
 Au        18.3897323086        3.3971263298        7.7827387348
 Au        19.8320789061        0.9002611384        7.7832156407
 Au        21.2739790423        3.3971272604        7.7827133478
 Au        22.7162529529        0.8998445646        7.7836396211
 Au        24.1582738987        3.3965407790        7.7834906943
 Au        25.6002919889        0.8991566767        7.7845181971
 Au        27.0424590405        3.3959441448        7.7844479396
 Au        28.4842882821        0.8985691000        7.7854486464
 Au        29.9264339932        3.3954532519        7.7855522307
 Au        31.3681917478        0.8979550171        7.7866140064
 Au        32.8101587967        3.3948353195        7.7869784669
 Au        34.2519350081        0.8971596846        7.7881908982
 Au        35.6936415077        3.3939447976        7.7886923194
 Au         2.5295421967        5.8908177115        7.7889919296
 Au         3.9706091121        8.3878955747        7.7890551927
 Au         5.4125060696        5.8898108779        7.7898983305
 Au         6.8530481031        8.3868232940        7.7888083745
 Au         8.2956952971        5.8894759049        7.7895100241
 Au         9.7358364269        8.3864218513        7.7867158230
 Au        11.1795871414        5.8907686865        7.7877665182
 Au        12.6203281983        8.3886302072        7.7841722107
 Au        14.0634553825        5.8926897914        7.7846798893
 Au        15.5049449979        8.3910549876        7.7811708866
 Au        16.9474512551        5.8941012265        7.7821520975
 Au        18.3897099397        8.3917002965        7.7794263853
 Au        19.8317091612        5.8943532845        7.7814319434
 Au        21.2748608437        8.3907874680        7.7792591406
 Au        22.7163159791        5.8937499039        7.7818649266
 Au        24.1595504658        8.3902718544        7.7803856906
 Au        25.6007892083        5.8931886159        7.7828191788
 Au        27.0435479669        8.3902154277        7.7821302682
 Au        28.4848533382        5.8928597741        7.7840971671
 Au        29.9270980377        8.3901643810        7.7840937918
 Au        31.3685424161        5.8925011072        7.7856317454
 Au        32.8103912952        8.3897880572        7.7860869927
 Au        34.2519277766        5.8918266993        7.7873631722
 Au        35.6934196722        8.3889886608        7.7879087298
 Au         2.5293312500       10.8863456691        7.7886090315
 Au         3.9711445436       13.3838367552        7.7893584329
 Au         5.4116637268       10.8853402941        7.7889793579
 Au         6.8536525248       13.3831661992        7.7890540854
 Au         8.2933540306       10.8842519447        7.7870207439
 Au         9.7353827868       13.3822561394        7.7853837063
 Au        11.1747047398       10.8833409039        7.7805963129
 Au        12.6160156529       13.3819224896        7.7729591860
 Au        14.0602790969       10.8857718594        7.7747736304
 Au        15.5025135429       13.3841389576        7.7629173133
 Au        16.9474556568       10.8877293992        7.7717252357
 Au        18.3910512877       13.3848158742        7.7627571909
 Au        19.8343999399       10.8873909398        7.7725473169
 Au        21.2768167220       13.3845882307        7.7700523203
 Au        22.7189237577       10.8872961625        7.7762561872
 Au        24.1603777171       13.3853348273        7.7766193975
 Au        25.6024137195       10.8876609688        7.7796126352
 Au        27.0435457561       13.3858191610        7.7807664418
 Au        28.4856351808       10.8879145049        7.7824053137
 Au        29.9269271694       13.3857383507        7.7836393268
 Au        31.3688531396       10.8877654859        7.7848479163
 Au        32.8103544183       13.3852789116        7.7860755372
 Au        34.2519853459       10.8872079531        7.7870053746
 Au        35.6936464100       13.3845848387        7.7881164582
 Au         2.5300024006       15.8818078121        7.7890406501
 Au         3.9718183435       18.3788959372        7.7896413606
 Au         5.4133479580       15.8812583086        7.7898475386
 Au         6.8553098216       18.3785015769        7.7898889850
 Au         8.2965527104       15.8809774026        7.7891951733
 Au         9.7388501856       18.3785650360        7.7889579575
 Au        11.1792582313       15.8808899402        7.7847380483
 Au        12.6220727689       18.3800875928        7.7841627272
 Au        14.0606099384       15.8834602732        7.7691863988
 Au        15.5046270983       18.3858566506        7.7702549800
 Au        16.9464859122       15.8853689149        7.7605127948
 Au        18.3891668578       18.3848575691        7.7686535396
 Au        19.8322994184       15.8839533667        7.7664472049
 Au        21.2732656832       18.3823174679        7.7746346760
 Au        22.7164748425       15.8835492757        7.7746606736
 Au        24.1576071460       18.3815184534        7.7786942024
 Au        25.6004313086       15.8837281845        7.7794682433
 Au        27.0420260752       18.3812718952        7.7813153635
 Au        28.4844528083       15.8836039827        7.7824422254
 Au        29.9261971258       18.3808992798        7.7838316850
 Au        31.3683292403       15.8831680081        7.7849896147
 Au        32.8101038410       18.3803158138        7.7862499645
 Au        34.2520087688       15.8825193112        7.7872755586
 Au        35.6937855672       18.3795826397        7.7883151179
 Au         2.5300682491       20.8765829558        7.7893238072
 Au         3.9718400703       23.3735632048        7.7903398425
 Au         5.4135544390       20.8759794990        7.7901977799
 Au         6.8552190540       23.3731674564        7.7908312378
 Au         8.2969777242       20.8758292538        7.7899881054
 Au         9.7384885002       23.3734575091        7.7901464765
 Au        11.1803728854       20.8765432480        7.7886388985
 Au        12.6217152732       23.3752957851        7.7878150678
 Au        14.0636631837       20.8801481500        7.7833754315
 Au        15.5055436991       23.3789407794        7.7831652642
 Au        16.9476055596       20.8845255518        7.7754577960
 Au        18.3902001052       23.3803048253        7.7800736778
 Au        19.8316292583       20.8816631084        7.7769763729
 Au        21.2742074997       23.3780181121        7.7810050718
 Au        22.7156509537       20.8796354999        7.7793783945
 Au        24.1581336365       23.3768315557        7.7818861649
 Au        25.5999097253       20.8789725092        7.7810586646
 Au        27.0421379736       23.3762638510        7.7831589417
 Au        28.4841073270       20.8785737491        7.7830987841
 Au        29.9261371750       23.3757649088        7.7849105454
 Au        31.3681296632       20.8780638315        7.7853730275
 Au        32.8100435299       23.3751170426        7.7869198750
 Au        34.2519448360       20.8773631716        7.7875756175
 Au        35.6937877135       23.3743162183        7.7888804167
 Au         2.5301082468       25.8711809839        7.7900422408
 Au         3.9718357564       28.3680053067        7.7909219787
 Au         5.4135636745       25.8705713919        7.7912308602
 Au         6.8552042812       28.3676692120        7.7916643014
 Au         8.2968379411       25.8705321012        7.7912238200
 Au         9.7384489878       28.3681545831        7.7908539081
 Au        11.1800463842       25.8715234242        7.7897108721
 Au        12.6218168871       28.3696811058        7.7884753512
 Au        14.0635487476       25.8738696891        7.7866355245
 Au        15.5056959982       28.3716838651        7.7854598169
 Au        16.9478750021       25.8761054200        7.7834027203
 Au        18.3900859441       28.3727930554        7.7834961178
 Au        19.8324334960       25.8761012667        7.7823268803
 Au        21.2743863136       28.3724708744        7.7832984753
 Au        22.7163893684       25.8747405834        7.7829073706
 Au        24.1583389106       28.3716103678        7.7840199703
 Au        25.6002611562       25.8739620649        7.7837131369
 Au        27.0422483344       28.3709753075        7.7849046114
 Au        28.4841759655       25.8734080307        7.7848750050
 Au        29.9261723413       28.3703847402        7.7860025429
 Au        31.3681005437       25.8727977258        7.7864106828
 Au        32.8100492424       28.3696728218        7.7874698942
 Au        34.2519408361       25.8720232711        7.7882386720
 Au        35.6937878586       28.3688068933        7.7892653080
 Au         3.9715907619        1.7285895007       10.0450095659
 Au         2.5296508186        4.2264326275       10.0437209754
 Au         6.8553301930        1.7282020366       10.0458141805
 Au         5.4132949392        4.2256785210       10.0449407396
 Au         9.7391037474        1.7287649956       10.0448915292
 Au         8.2970334400        4.2255805687       10.0448310961
 Au        12.6227749529        1.7301138256       10.0422388877
 Au        11.1809774701        4.2267826805       10.0429141828
 Au        15.5064399524        1.7316151943       10.0391928632
 Au        14.0646250439        4.2285538417       10.0396031185
 Au        18.3901732328        1.7324864464       10.0373988803
 Au        16.9481260111        4.2298876866       10.0369587027
 Au        21.2739941655        1.7324914273       10.0373060649
 Au        19.8317446778        4.2301607691       10.0362536607
 Au        24.1578930243        1.7319505961       10.0380899985
 Au        22.7157149022        4.2296222886       10.0368298477
 Au        27.0418100981        1.7313469485       10.0390111731
 Au        25.5998292562        4.2289742954       10.0377718180
 Au        29.9257119755        1.7308286292       10.0400445031
 Au        28.4838449958        4.2284752203       10.0388668568
 Au        32.8095616303        1.7302192734       10.0414499211
 Au        31.3677195419        4.2279874993       10.0402208576
 Au        35.6933482005        1.7294149160       10.0432633930
 Au        34.2514772021        4.2273028824       10.0419239156
 Au         3.9712725046        6.7235263855       10.0438092067
 Au         2.5293956521        9.2216142210       10.0429326866
 Au         6.8547373685        6.7228535454       10.0440649608
 Au         5.4126692587        9.2207870507       10.0435232172
 Au         9.7383978816        6.7229947622       10.0427964777
 Au         8.2956780597        9.2201178366       10.0423315625
 Au        12.6226549999        6.7251740020       10.0400971421
 Au        11.1786909374        9.2202561251       10.0390010535
 Au        15.5062027221        6.7273889514       10.0365952697
 Au        14.0635340584        9.2239613158       10.0356463780
 Au        18.3895923060        6.7280863503       10.0349367161
 Au        16.9477187405        9.2260865470       10.0327785472
 Au        21.2736101937        6.7272830342       10.0350295966
 Au        19.8322280869        9.2248893505       10.0319867627
 Au        24.1579084605        6.7264690591       10.0358591356
 Au        22.7165231547        9.2237871353       10.0330060181
 Au        27.0420219259        6.7260220411       10.0371491703
 Au        25.6004631258        9.2234556376       10.0348403268
 Au        29.9259047890        6.7256821432       10.0387380668
 Au        28.4841747879        9.2233286282       10.0369733606
 Au        32.8096369094        6.7251764493       10.0405489369
 Au        31.3678260115        9.2230113344       10.0391507000
 Au        35.6932580586        6.7244118556       10.0424093848
 Au        34.2514167233        9.2224163230       10.0412512991
 Au         3.9710645039       11.7189671093       10.0434919206
 Au         2.5296013800       14.2169113120       10.0432222919
 Au         6.8540910558       11.7183094791       10.0431202175
 Au         5.4132960503       14.2163750732       10.0439697999
 Au         9.7362341473       11.7174557682       10.0398132517
 Au         8.2967585169       14.2159231113       10.0428578363
 Au        12.6168004072       11.7167548615       10.0286588855
 Au        11.1790684550       14.2148595912       10.0371641447
 Au        15.5040165323       11.7205433942       10.0212827773
 Au        14.0589148422       14.2157614278       10.0165534960
 Au        18.3921200343       11.7210050158       10.0210621431
 Au        16.9468010957       14.2181210716       10.0080337630
 Au        21.2761392722       11.7206023003       10.0272751196
 Au        19.8333213098       14.2170677946       10.0173373950
 Au        24.1592186552       11.7207676384       10.0318091779
 Au        22.7167797871       14.2177582462       10.0274763635
 Au        27.0424523775       11.7209739044       10.0350453476
 Au        25.5999641390       14.2185298322       10.0330978978
 Au        29.9259523204       11.7208242338       10.0377458357
 Au        28.4836596832       14.2185587142       10.0363620980
 Au        32.8095627366       11.7203584251       10.0401724717
 Au        31.3674944216       14.2181799857       10.0390291838
 Au        35.6931442264       11.7196862258       10.0422457064
 Au        34.2513224394       14.2175773935       10.0413985026
 Au         3.9718166917       16.7139653190       10.0438704302
 Au         2.5297948280       19.2115096145       10.0433631011
 Au         6.8559994741       16.7135417267       10.0440864998
 Au         5.4138750207       19.2108686329       10.0442220861
 Au         9.7403411954       16.7131960113       10.0428185497
 Au         8.2980526480       19.2104768638       10.0438818681
 Au        12.6235483297       16.7134253279       10.0362636521
 Au        11.1822277171       19.2103967554       10.0424826039
 Au        15.5043807155       16.7195060880       10.0144512692
 Au        14.0653375192       19.2136776328       10.0355990823
 Au        18.3886736422       16.7173523758       10.0149384918
 Au        16.9477775875       19.2189765277       10.0232311067
 Au        21.2721934032       16.7155724351       10.0254151824
 Au        19.8304138584       19.2147099699       10.0273522148
 Au        24.1562904897       16.7158066107       10.0316705968
 Au        22.7140358564       19.2131567030       10.0315297613
 Au        27.0407865860       16.7159996749       10.0349989405
 Au        25.5984501626       19.2131670676       10.0340361274
 Au        29.9251121462       16.7157756018       10.0377551553
 Au        28.4828611989       19.2131341315       10.0365862258
 Au        32.8092447375       16.7152742253       10.0402992851
 Au        31.3671121999       19.2128222628       10.0391572620
 Au        35.6932780189       16.7146062954       10.0424673304
 Au        34.2512347413       19.2122390342       10.0415317391
 Au         3.9717591633       21.7084227701       10.0442840296
 Au         2.5297604427       24.2061266944       10.0440731578
 Au         6.8556930012       21.7079018074       10.0446960973
 Au         5.4136305521       24.2054774879       10.0452503994
 Au         9.7395251739       21.7077905692       10.0439788554
 Au         8.2973548381       24.2052707916       10.0452237775
 Au        12.6230497635       21.7090096100       10.0417263986
 Au        11.1808787825       24.2059020630       10.0437874637
 Au        15.5065326299       21.7127933732       10.0359856455
 Au        14.0644043541       24.2079320802       10.0405375035
 Au        18.3902796050       21.7143567445       10.0318676220
 Au        16.9484567775       24.2101618356       10.0367697814
 Au        21.2733632946       21.7114597226       10.0334770879
 Au        19.8325342432       24.2101576282       10.0355493364
 Au        24.1569972913       21.7106886872       10.0345852499
 Au        22.7159288581       24.2087417849       10.0360971437
 Au        27.0410016824       21.7105415998       10.0362529141
 Au        25.5995030958       24.2082279968       10.0369153000
 Au        29.9251114743       21.7103317084       10.0384030985
 Au        28.4833209232       24.2079290214       10.0383121998
 Au        32.8092148122       21.7098768047       10.0406975154
 Au        31.3672895689       24.2075334391       10.0401373768
 Au        35.6932652224       21.7091764422       10.0428054358
 Au        34.2512965971       24.2069084376       10.0421776542
 Au         3.9716860007       26.7031381714       10.0451833326
 Au         2.5297574443       29.2008802853       10.0444422189
 Au         6.8554391910       26.7027474548       10.0459484560
 Au         5.4135357544       29.2002486531       10.0458663407
 Au         9.7390385828       26.7030811057       10.0451839284
 Au         8.2972475828       29.2002831042       10.0459167036
 Au        12.6225791754       26.7043669711       10.0427823166
 Au        11.1808630390       29.2011831866       10.0441717322
 Au        15.5063835854       26.7061575158       10.0395064688
 Au        14.0645302534       29.2026862091       10.0412031475
 Au        18.3904977016       26.7072191718       10.0373187078
 Au        16.9483856839       29.2040082862       10.0385384638
 Au        21.2744226979       26.7069533012       10.0370981409
 Au        19.8323248469       29.2044682566       10.0374939124
 Au        24.1579869954       26.7061517370       10.0377338610
 Au        22.7161529212       29.2041045469       10.0378704318
 Au        27.0416470400       26.7056631748       10.0386239565
 Au        25.5998807938       29.2034674453       10.0386951776
 Au        29.9254705829       26.7052299554       10.0398659537
 Au        28.4836823878       29.2029484144       10.0396245600
 Au        32.8093931125       26.7046629876       10.0415140583
 Au        31.3675484212       29.2024114365       10.0408456363
 Au        35.6933211202       26.7039018691       10.0434519612
 Au        34.2514204406       29.2017095415       10.0425254304
 Au         2.5296717362        2.5616464916       12.4312545377
 Au         3.9716946669        0.0637421940       12.4324092306
 Au         5.4137350441        2.5610931124       12.4326138918
 Au         6.8557689331        0.0634359482       12.4332637796
 Au         8.2978074376        2.5611976407       12.4326160195
 Au         9.7397466595        0.0639603140       12.4323903504
 Au        11.1817995654        2.5623490414       12.4307185563
 Au        12.6234828582        0.0651995896       12.4298301208
 Au        14.0653644790        2.5639533479       12.4275373288
 Au        15.5070153947        0.0665948656       12.4268228585
 Au        16.9486263172        2.5652172386       12.4249342441
 Au        18.3904516135        0.0674518158       12.4249646464
 Au        19.8318754493        2.5655909649       12.4241142012
 Au        21.2739179537        0.0674984574       12.4247709541
 Au        22.7154346463        2.5651234301       12.4246257543
 Au        24.1575046393        0.0669957134       12.4254818828
 Au        25.5992709998        2.5643905136       12.4255290076
 Au        27.0412128868        0.0663768331       12.4263493839
 Au        28.4831924482        2.5637372518       12.4265138066
 Au        29.9250723741        0.0658310928       12.4273565854
 Au        31.3671461583        2.5631303246       12.4277483725
 Au        32.8090455026        0.0652184995       12.4287652347
 Au        34.2511382895        2.5624232428       12.4293991137
 Au        35.6931016340        0.0644674870       12.4306108366
 Au         2.5296476686        7.5567680763       12.4303176940
 Au         3.9716948869        5.0588849482       12.4314668427
 Au         5.4136432955        7.5562147930       12.4311677147
 Au         6.8557460205        5.0585844196       12.4320250935
 Au         8.2975866519        7.5561528889       12.4306152954
 Au         9.7398371890        5.0591028186       12.4310357702
 Au        11.1815487007        7.5569347625       12.4285742616
 Au        12.6238837647        5.0610641556       12.4282125646
 Au        14.0657419575        7.5603259300       12.4251112775
 Au        15.5069891104        5.0629292280       12.4247412716
 Au        16.9478274294        7.5622113926       12.4220945947
 Au        18.3897740508        5.0637744642       12.4230833324
 Au        19.8308146311        7.5614746145       12.4215813389
 Au        21.2731516211        5.0632793718       12.4232465806
 Au        22.7149094548        7.5601353417       12.4220277836
 Au        24.1571061131        5.0623361725       12.4240576151
 Au        25.5990977944        7.5592924666       12.4232049569
 Au        27.0411690767        5.0615883671       12.4251413517
 Au        28.4831433054        7.5587500639       12.4248131358
 Au        29.9251801394        5.0609878486       12.4264589755
 Au        31.3671410400        7.5581934986       12.4266576460
 Au        32.8091692815        5.0603459400       12.4280808416
 Au        34.2511376161        7.5575093236       12.4286070321
 Au        35.6931681664        5.0595905370       12.4299100612
 Au         2.5295685979       12.5518562062       12.4302783677
 Au         3.9715934308       10.0540278014       12.4306387487
 Au         5.4136238174       12.5514295569       12.4309665369
 Au         6.8554519345       10.0536901140       12.4305021542
 Au         8.2972135934       12.5513920812       12.4299815437
 Au         9.7388623333       10.0536808879       12.4286327139
 Au        11.1788588065       12.5509935704       12.4266725061
 Au        12.6215653250       10.0539868283       12.4246352874
 Au        14.0546950599       12.5485130019       12.4031498931
 Au        15.5062671257       10.0603027351       12.4213310892
 Au        16.9510829613       12.5524451501       12.3969635503
 Au        18.3894302182       10.0592547832       12.4193784818
 Au        19.8342303673       12.5533394962       12.4112581041
 Au        21.2733104104       10.0574559461       12.4193346731
 Au        22.7161573962       12.5537093193       12.4176042830
 Au        24.1572717725       10.0567386009       12.4207481812
 Au        25.5991412160       12.5539442207       12.4208557388
 Au        27.0411232670       10.0564006876       12.4228809108
 Au        28.4828270073       12.5536814572       12.4236490386
 Au        29.9250412705       10.0559699666       12.4251484359
 Au        31.3668196006       12.5531733668       12.4261898979
 Au        32.8090368178       10.0553757337       12.4273841407
 Au        34.2509269062       12.5525164491       12.4284986142
 Au        35.6930734022       10.0546695396       12.4293801264
 Au         2.5297309805       17.5464389842       12.4304712535
 Au         3.9718633534       15.0489844119       12.4310046262
 Au         5.4143921080       17.5458913236       12.4313229316
 Au         6.8562713724       15.0487837779       12.4311173457
 Au         8.2992740116       17.5456402000       12.4309695901
 Au         9.7402760347       15.0488135905       12.4297858925
 Au        11.1841243732       17.5449939989       12.4304827126
 Au        12.6214188475       15.0470604262       12.4228374883
 Au        14.0654538501       17.5480321764       12.4221130356
 Au        15.4975957426       15.0543998774       12.3824476698
 Au        16.9458920958       17.5566782584       12.3972502472
 Au        18.3900265062       15.0480453551       12.3916950124
 Au        19.8282118315       17.5479810990       12.4097586591
 Au        21.2738893720       15.0494394404       12.4103420132
 Au        22.7119392008       17.5475952721       12.4175539749
 Au        24.1562774672       15.0511448165       12.4187080301
 Au        25.5968509313       17.5481647517       12.4207604460
 Au        27.0401097201       15.0511983525       12.4221693985
 Au        28.4816274486       17.5481067822       12.4235752768
 Au        29.9243416513       15.0508141822       12.4249344703
 Au        31.3662129990       17.5477391728       12.4262231570
 Au        32.8086436114       15.0502319508       12.4274535076
 Au        34.2507070768       17.5471369243       12.4286251380
 Au        35.6929744983       15.0495548732       12.4296132918
 Au         2.5296027062       22.5409126275       12.4309244905
 Au         3.9719099151       20.0432567103       12.4311825146
 Au         5.4139428964       22.5402120353       12.4320108279
 Au         6.8564183505       20.0426820876       12.4314806481
 Au         8.2981450527       22.5397622192       12.4319052789
 Au         9.7408022920       20.0421352751       12.4307505132
 Au        11.1819177884       22.5397510689       12.4306298559
 Au        12.6242671604       20.0422602534       12.4295099999
 Au        14.0650318053       22.5413444428       12.4276150504
 Au        15.5066201694       20.0467094558       12.4229134461
 Au        16.9484752514       22.5438588868       12.4235114417
 Au        18.3896892619       20.0492809914       12.4159949979
 Au        19.8321652548       22.5438946888       12.4218292807
 Au        21.2715720479       20.0446538274       12.4190183759
 Au        22.7147973251       22.5423810540       12.4221001757
 Au        24.1552447468       20.0448142102       12.4204257456
 Au        25.5982565254       22.5424325831       12.4230106753
 Au        27.0395708194       20.0451374460       12.4226387834
 Au        28.4822134046       22.5424584398       12.4247369465
 Au        29.9240061254       20.0450714835       12.4251263732
 Au        31.3664128496       22.5422164291       12.4268413331
 Au        32.8084522152       20.0446680344       12.4275895422
 Au        34.2507342707       22.5416679428       12.4290277968
 Au        35.6929133080       20.0439972048       12.4297472119
 Au         2.5296184756       27.5358303039       12.4315931682
 Au         3.9717153018       25.0379610625       12.4321032824
 Au         5.4137567507       27.5352171870       12.4330080652
 Au         6.8558752480       25.0374699522       12.4328106031
 Au         8.2977827798       27.5351618428       12.4330712212
 Au         9.7397999562       25.0375175609       12.4320807003
 Au        11.1815721122       27.5358902230       12.4313926233
 Au        12.6233503946       25.0384537772       12.4297588861
 Au        14.0651767752       27.5372285726       12.4284270682
 Au        15.5068344305       25.0400969570       12.4263782641
 Au        16.9487562173       27.5384712719       12.4256724389
 Au        18.3905518889       25.0411764697       12.4240216776
 Au        19.8323234688       27.5389498270       12.4245542409
 Au        21.2740600162       25.0409891192       12.4236979262
 Au        22.7157991907       27.5386648287       12.4248658396
 Au        24.1571855504       25.0403295360       12.4241845538
 Au        25.5992407887       27.5381176937       12.4256106750
 Au        27.0407242622       25.0401229543       12.4251253032
 Au        28.4829432965       27.5377033403       12.4265673707
 Au        29.9246133024       25.0398736662       12.4265664665
 Au        31.3668747884       27.5372405490       12.4278854923
 Au        32.8087305937       25.0394163969       12.4283952048
 Au        34.2509607185       27.5366014168       12.4296477241
 Au        35.6929673358       25.0387187447       12.4304045795
 Au         2.5292696864        0.8965339569       14.6851852950
 Au         3.9715290250        3.3939847906       14.6855747128
 Au         5.4137028990        0.8960967052       14.6865214449
 Au         6.8560150856        3.3939497328       14.6862194956
 Au         8.2981838770        0.8964132778       14.6865340900
 Au         9.7404986580        3.3949180461       14.6852981175
 Au        11.1824654997        0.8977916161       14.6847334731
 Au        12.6246142954        3.3971874150       14.6825894358
 Au        14.0661575462        0.8996775903       14.6818116271
 Au        15.5077609464        3.3994144928       14.6794907940
 Au        16.9492553153        0.9010428317       14.6793429987
 Au        18.3904056744        3.4001705949       14.6778124325
 Au        19.8321883250        0.9012420148       14.6784239542
 Au        21.2734238905        3.3993489132       14.6778492227
 Au        22.7154005275        0.9005302657       14.6788313908
 Au        24.1569918850        3.3980735606       14.6786639699
 Au        25.5989280835        0.8995981685       14.6796969826
 Au        27.0407790571        3.3970387434       14.6796590028
 Au        28.4826222554        0.8987794252       14.6806222769
 Au        29.9246314504        3.3961989056       14.6808064256
 Au        31.3664738256        0.8980518656       14.6817890786
 Au        32.8085843512        3.3953920490       14.6822691301
 Au        34.2505148525        0.8972855499       14.6833789619
 Au        35.6927048472        3.3945912297       14.6840090074
 Au         2.5294269847        5.8918294198       14.6844032249
 Au         3.9717491447        8.3890412146       14.6845517868
 Au         5.4138902669        5.8914944998       14.6853811780
 Au         6.8563621028        8.3890590470       14.6846310237