 DBCSR| CPU Multiplication driver                                           BLAS (U)
 DBCSR| Multrec recursion limit                                              512 (U)
 DBCSR| Multiplication stack size                                           1000 (D)
 DBCSR| Maximum elements for images                                    UNLIMITED (U)
 DBCSR| Multiplicative factor virtual images                                   1 (U)
 DBCSR| Use multiplication densification                                       T (D)
 DBCSR| Multiplication size stacks                                             3 (U)
 DBCSR| Use memory pool for CPU allocation                                     F (U)
 DBCSR| Number of 3D layers                                               SINGLE (U)
 DBCSR| Use MPI memory allocation                                              F (U)
 DBCSR| Use RMA algorithm                                                      F (U)
 DBCSR| Use Communication thread                                               T (U)
 DBCSR| Communication thread load                                             79 (D)
 DBCSR| MPI: My process id                                                     0
 DBCSR| MPI: Number of processes                                              64
 DBCSR| OMP: Current number of threads                                         3
 DBCSR| OMP: Max number of threads                                             3
 DBCSR| Split modifier for TAS multiplication algorithm                  1.0E+00 (U)


  **** **** ******  **  PROGRAM STARTED AT               2026-03-26 18:51:43.461
 ***** ** ***  *** **   PROGRAM STARTED ON                                cn1205
 **    ****   ******    PROGRAM STARTED BY                              eprop2d9
 ***** **    ** ** **   PROGRAM PROCESS ID                               1044575
  **** **  *******  **  PROGRAM STARTED IN /scratch/hpc-prf-rqsued/eprop2d9_Step
                                           an/cp2k_rt.1263443

 CP2K| version string:                 CP2K version 2026.1 (Development Version)
 CP2K| source code revision number:                                   c6e3149edc
 CP2K| cp2kflags: omp libint fftw3 libxc parallel scalapack greenx              
 CP2K| is freely available from                            https://www.cp2k.org/
 CP2K| Program compiled at                                   2026-03-26 11:25:15
 CP2K| Program compiled on                                                login4
 CP2K| Program compiled for                                               x86_64
 CP2K| Data directory path    /pc2/users/e/eprop2d9/group-storage/CP2K/install/s
 CP2K| Input file name                                                 rtbse.inp

 GLOBAL| Force Environment number                                              1
 GLOBAL| Basis set file name                                         aug-cc-pvtz
 GLOBAL| Potential file name                                      ALL_POTENTIALS
 GLOBAL| MM Potential file name                                     MM_POTENTIAL
 GLOBAL| Coordinate file name                                          coord.xyz
 GLOBAL| Method name                                                        CP2K
 GLOBAL| Project name                                                     Ethene
 GLOBAL| Run type                                                 RT_PROPAGATION
 GLOBAL| FFT library                                                       FFTW3
 GLOBAL| Diagonalization library                                       ScaLAPACK
 GLOBAL| Cholesky decomposition library                                ScaLAPACK
 GLOBAL| DGEMM library                                                      BLAS
 GLOBAL| Orthonormality check for eigenvectors                          DISABLED
 GLOBAL| Matrix multiplication library                                 ScaLAPACK
 GLOBAL| All-to-all communication in single precision                          F
 GLOBAL| FFTs using library dependent lengths                                  F
 GLOBAL| Grid backend                                                       AUTO
 GLOBAL| Global print level                                               MEDIUM
 GLOBAL| MPI I/O enabled                                                       T
 GLOBAL| Total number of message passing processes                            64
 GLOBAL| Number of distributed systems (nodes)                                 1
 GLOBAL| Number of threads for this process                                    3
 GLOBAL| This output is from process                                           0
 GLOBAL| OpenMP stack size per thread (OMP_STACKSIZE)                    default
 GLOBAL| CPU model name                          AMD EPYC 9655 96-Core Processor
 GLOBAL| CPUID                                                              1003

 MEMORY| system memory details [Kb]
 MEMORY|                        rank 0           min           max       average
 MEMORY| MemTotal            791039084     791039084     791039084     791039084
 MEMORY| MemFree             721384156     721384156     721384156     721384156
 MEMORY| Buffers                  3200          3200          3200          3200
 MEMORY| Cached               23268628      23268628      23268628      23268628
 MEMORY| Slab                  5656416       5656416       5656416       5656416
 MEMORY| SReclaimable          2595920       2595920       2595920       2595920
 MEMORY| MemLikelyFree       747251904     747251904     747251904     747251904


 *** Fundamental physical constants (SI units) ***

 *** Literature: B. J. Mohr and B. N. Taylor,
 ***             CODATA recommended values of the fundamental physical
 ***             constants: 2006, Web Version 5.1
 ***             http://physics.nist.gov/constants

 Speed of light in vacuum [m/s]                             2.99792458000000E+08
 Magnetic constant or permeability of vacuum [N/A**2]       1.25663706143592E-06
 Electric constant or permittivity of vacuum [F/m]          8.85418781762039E-12
 Planck constant (h) [J*s]                                  6.62606896000000E-34
 Planck constant (h-bar) [J*s]                              1.05457162825177E-34
 Elementary charge [C]                                      1.60217648700000E-19
 Electron mass [kg]                                         9.10938215000000E-31
 Electron g factor [ ]                                     -2.00231930436220E+00
 Proton mass [kg]                                           1.67262163700000E-27
 Fine-structure constant                                    7.29735253760000E-03
 Rydberg constant [1/m]                                     1.09737315685270E+07
 Avogadro constant [1/mol]                                  6.02214179000000E+23
 Boltzmann constant [J/K]                                   1.38065040000000E-23
 Atomic mass unit [kg]                                      1.66053878200000E-27
 Bohr radius [m]                                            5.29177208590000E-11

 *** Conversion factors ***

 [u] -> [a.u.]                                              1.82288848426455E+03
 [Angstrom] -> [Bohr] = [a.u.]                              1.88972613288564E+00
 [a.u.] = [Bohr] -> [Angstrom]                              5.29177208590000E-01
 [a.u.] -> [s]                                              2.41888432650478E-17
 [a.u.] -> [fs]                                             2.41888432650478E-02
 [a.u.] -> [J]                                              4.35974393937059E-18
 [a.u.] -> [N]                                              8.23872205491840E-08
 [a.u.] -> [K]                                              3.15774647902944E+05
 [a.u.] -> [kJ/mol]                                         2.62549961709828E+03
 [a.u.] -> [kcal/mol]                                       6.27509468713739E+02
 [a.u.] -> [Pa]                                             2.94210107994716E+13
 [a.u.] -> [bar]                                            2.94210107994716E+08
 [a.u.] -> [atm]                                            2.90362800883016E+08
 [a.u.] -> [eV]                                             2.72113838565563E+01
 [a.u.] -> [Hz]                                             6.57968392072181E+15
 [a.u.] -> [1/cm] (wave numbers)                            2.19474631370540E+05
 [a.u./Bohr**2] -> [1/cm]                                   5.14048714338585E+03
 

 CELL_TOP| Volume [angstrom^3]:                                      8000.000000
 CELL_TOP| Vector a [angstrom    20.000     0.000     0.000   |a| =    20.000000
 CELL_TOP| Vector b [angstrom     0.000    20.000     0.000   |b| =    20.000000
 CELL_TOP| Vector c [angstrom     0.000     0.000    20.000   |c| =    20.000000
 CELL_TOP| Angle (b,c), alpha [degree]:                                90.000000
 CELL_TOP| Angle (a,c), beta  [degree]:                                90.000000
 CELL_TOP| Angle (a,b), gamma [degree]:                                90.000000
 CELL_TOP| Numerically orthorhombic:                                         YES
 CELL_TOP| Periodicity                                                      NONE

 GENERATE|  Preliminary Number of Bonds generated:                             0
 GENERATE|  Achieved consistency in connectivity generation.

 CELL| Volume [angstrom^3]:                                          8000.000000
 CELL| Vector a [angstrom]:      20.000     0.000     0.000   |a| =    20.000000
 CELL| Vector b [angstrom]:       0.000    20.000     0.000   |b| =    20.000000
 CELL| Vector c [angstrom]:       0.000     0.000    20.000   |c| =    20.000000
 CELL| Angle (b,c), alpha [degree]:                                    90.000000
 CELL| Angle (a,c), beta  [degree]:                                    90.000000
 CELL| Angle (a,b), gamma [degree]:                                    90.000000
 CELL| Numerically orthorhombic:                                             YES
 CELL| Periodicity                                                          NONE

 CELL_REF| Volume [angstrom^3]:                                      8000.000000
 CELL_REF| Vector a [angstrom    20.000     0.000     0.000   |a| =    20.000000
 CELL_REF| Vector b [angstrom     0.000    20.000     0.000   |b| =    20.000000
 CELL_REF| Vector c [angstrom     0.000     0.000    20.000   |c| =    20.000000
 CELL_REF| Angle (b,c), alpha [degree]:                                90.000000
 CELL_REF| Angle (a,c), beta  [degree]:                                90.000000
 CELL_REF| Angle (a,b), gamma [degree]:                                90.000000
 CELL_REF| Numerically orthorhombic:                                         YES
 CELL_REF| Periodicity                                                      NONE

 *******************************************************************************
 *******************************************************************************
 **                                                                           **
 **     #####                         ##              ##                      **
 **    ##   ##            ##          ##              ##                      **
 **   ##     ##                       ##            ######                    **
 **   ##     ##  ##   ##  ##   #####  ##  ##   ####   ##    #####    #####    **
 **   ##     ##  ##   ##  ##  ##      ## ##   ##      ##   ##   ##  ##   ##   **
 **   ##  ## ##  ##   ##  ##  ##      ####     ###    ##   ######   ######    **
 **    ##  ###   ##   ##  ##  ##      ## ##      ##   ##   ##       ##        **
 **     #######   #####   ##   #####  ##  ##  ####    ##    #####   ##        **
 **           ##                                                    ##        **
 **                                                                           **
 **                                                ... make the atoms dance   **
 **                                                                           **
 **            Copyright (C) by CP2K developers group (2000-2026)             **
 **                      J. Chem. Phys. 152, 194103 (2020)                    **
 **                                                                           **
 *******************************************************************************

 DFT| Spin restricted Kohn-Sham (RKS) calculation                            RKS
 DFT| Multiplicity                                                             1
 DFT| Number of spin states                                                    1
 DFT| Charge                                                                   0
 DFT| Self-interaction correction (SIC)                                       NO
 DFT| Cutoffs: density                                              1.000000E-10
 DFT|          gradient                                             1.000000E-10
 DFT|          tau                                                  1.000000E-10
 DFT|          cutoff_smoothing_range                               0.000000E+00
 DFT| XC density smoothing                                                  NONE
 DFT| XC derivatives                                                          PW

 FUNCTIONAL| PBE:
 FUNCTIONAL| J.P.Perdew, K.Burke, M.Ernzerhof, Phys. Rev. Letter, vol. 77, n 18,
 FUNCTIONAL|  pp. 3865-3868, (1996)sx=0.750sc=1.000{spin unpolarized}           


 QS| Method:                                                                GAPW
 QS| Density plane wave grid type                        NON-SPHERICAL FULLSPACE
 QS| Number of grid levels:                                                    4
 QS| Density cutoff [a.u.]:                                                300.0
 QS| Multi grid cutoff [a.u.]: 1) grid level                               300.0
 QS|                           2) grid level                               100.0
 QS|                           3) grid level                                33.3
 QS|                           4) grid level                                11.1
 QS| Grid level progression factor:                                          3.0
 QS| Relative density cutoff [a.u.]:                                        30.0
 QS| Interaction thresholds: eps_pgf_orb:                                1.0E-05
 QS|                         eps_filter_matrix:                          0.0E+00
 QS|                         eps_core_charge:                            1.0E-12
 QS|                         eps_rho_gspace:                             1.0E-10
 QS|                         eps_rho_rspace:                             1.0E-10
 QS|                         eps_gvg_rspace:                             1.0E-05
 QS|                         eps_ppl:                                    1.0E-02
 QS|                         eps_ppnl:                                   1.0E-07
 QS| GAPW|      One center basis from orbital basis primitives
 QS| GAPW|                   eps_fit:                                    1.0E-04
 QS| GAPW|                   eps_iso:                                    1.0E-12
 QS| GAPW|                   eps_svd:                                    1.0E-08
 QS| GAPW|                   eps_cpc:                                    1.0E-10
 QS| GAPW|   atom-r-grid: quadrature:                                     GC_LOG
 QS| GAPW|      atom-s-grid:  max l :                                          6
 QS| GAPW|      max_l_rho0 :                                                   2


 ATOMIC KIND INFORMATION

  1. Atomic kind: H                                     Number of atoms:       4

     Orbital Basis Set                                               aug-cc-pvtz

       Number of orbital shell sets:                                           6
       Number of orbital shells:                                               9
       Number of primitive Cartesian functions:                               11
       Number of Cartesian basis functions:                                   25
       Number of spherical basis functions:                                   23
       Norm type:                                                              2

       Normalised Cartesian orbitals:

                        Set   Shell   Orbital            Exponent    Coefficient

                          1       1    1s               33.870000       0.000000
                                                         5.095000       0.000000
                                                         1.159000       0.000000
                                                         0.325800       0.307343
                                                         0.102700       0.000000

                          1       2    2s               33.870000       0.060718
                                                         5.095000       0.109507
                                                         1.159000       0.161468
                                                         0.325800       0.154871
                                                         0.102700       0.049575

                          1       3    3s               33.870000       0.000000
                                                         5.095000       0.000000
                                                         1.159000       0.000000
                                                         0.325800       0.000000
                                                         0.102700       0.129297

                          2       1    1s                0.025260       0.045158

                          3       1    1px               1.407000       2.184277
                                                         0.388000       0.000000
                          3       1    1py               1.407000       2.184277
                                                         0.388000       0.000000
                          3       1    1pz               1.407000       2.184277
                                                         0.388000       0.000000

                          3       2    2px               1.407000       0.000000
                                                         0.388000       0.436495
                          3       2    2py               1.407000       0.000000
                                                         0.388000       0.436495
                          3       2    2pz               1.407000       0.000000
                                                         0.388000       0.436495

                          4       1    1px               0.102000       0.082166
                          4       1    1py               0.102000       0.082166
                          4       1    1pz               0.102000       0.082166

                          5       1    1dx2              1.057000       1.813597
                          5       1    1dxy              1.057000       3.141241
                          5       1    1dxz              1.057000       3.141241
                          5       1    1dy2              1.057000       1.813597
                          5       1    1dyz              1.057000       3.141241
                          5       1    1dz2              1.057000       1.813597

                          6       1    1dx2              0.247000       0.142439
                          6       1    1dxy              0.247000       0.246712
                          6       1    1dxz              0.247000       0.246712
                          6       1    1dy2              0.247000       0.142439
                          6       1    1dyz              0.247000       0.246712
                          6       1    1dz2              0.247000       0.142439

     RI Auxiliary Basis Set                                    aug-cc-pvtz-rifit

       Number of orbital shell sets:                                          14
       Number of orbital shells:                                              14
       Number of primitive Cartesian functions:                               14
       Number of Cartesian basis functions:                                   55
       Number of spherical basis functions:                                   46
       Norm type:                                                              2

       Normalised Cartesian orbitals:

                        Set   Shell   Orbital            Exponent    Coefficient

                          1       1    1s                8.512828       3.551939

                          2       1    1s                1.873089       1.141114

                          3       1    1s                0.526184       0.440315

                          4       1    1s                0.289740       0.281460

                          5       1    1s                0.127194       0.151796

                          6       1    1px               2.372549       4.197195
                          6       1    1py               2.372549       4.197195
                          6       1    1pz               2.372549       4.197195

                          7       1    1px               1.180408       1.753802
                          7       1    1py               1.180408       1.753802
                          7       1    1pz               1.180408       1.753802

                          8       1    1px               0.603822       0.758711
                          8       1    1py               0.603822       0.758711
                          8       1    1pz               0.603822       0.758711

                          9       1    1px               0.235513       0.233861
                          9       1    1py               0.235513       0.233861
                          9       1    1pz               0.235513       0.233861

                         10       1    1dx2              1.809637       4.647235
                         10       1    1dxy              1.809637       8.049248
                         10       1    1dxz              1.809637       8.049248
                         10       1    1dy2              1.809637       4.647235
                         10       1    1dyz              1.809637       8.049248
                         10       1    1dz2              1.809637       4.647235

                         11       1    1dx2              1.143973       2.082748
                         11       1    1dxy              1.143973       3.607426
                         11       1    1dxz              1.143973       3.607426
                         11       1    1dy2              1.143973       2.082748
                         11       1    1dyz              1.143973       3.607426
                         11       1    1dz2              1.143973       2.082748

                         12       1    1dx2              0.436654       0.386056
                         12       1    1dxy              0.436654       0.668668
                         12       1    1dxz              0.436654       0.668668
                         12       1    1dy2              0.436654       0.386056
                         12       1    1dyz              0.436654       0.668668
                         12       1    1dz2              0.436654       0.386056

                         13       1    1fx3              1.806306       5.568458
                         13       1    1fx2y             1.806306      12.451451
                         13       1    1fx2z             1.806306      12.451451
                         13       1    1fxy2             1.806306      12.451451
                         13       1    1fxyz             1.806306      21.566546
                         13       1    1fxz2             1.806306      12.451451
                         13       1    1fy3              1.806306       5.568458
                         13       1    1fy2z             1.806306      12.451451
                         13       1    1fyz2             1.806306      12.451451
                         13       1    1fz3              1.806306       5.568458

                         14       1    1fx3              0.252978       0.066817
                         14       1    1fx2y             0.252978       0.149408
                         14       1    1fx2z             0.252978       0.149408
                         14       1    1fxy2             0.252978       0.149408
                         14       1    1fxyz             0.252978       0.258783
                         14       1    1fxz2             0.252978       0.149408
                         14       1    1fy3              0.252978       0.066817
                         14       1    1fy2z             0.252978       0.149408
                         14       1    1fyz2             0.252978       0.149408
                         14       1    1fz3              0.252978       0.066817

       Atomic covalent radius [Angstrom]:                                  0.320

       Atomic van der Waals radius [Angstrom]:                             1.090

     The atoms of this atomic kind are PAW atoms (GAPW):
       Hard Gaussian function radius:                                      1.200
       Rho0 radius:                                                        1.200
       Maximum GTO radius used for PAW projector construction:            24.566

     GAPW Soft Basis Set                                        aug-cc-pvtz_soft

       Number of orbital shell sets:                                           6
       Number of orbital shells:                                               9
       Number of primitive Cartesian functions:                               10
       Number of Cartesian basis functions:                                   25
       Number of spherical basis functions:                                   23
       Norm type:                                                              2

       Normalised Cartesian orbitals:

                        Set   Shell   Orbital            Exponent    Coefficient

                          1       1    1s                5.095000       0.000000
                                                         1.159000       0.000000
                                                         0.325800       0.307343
                                                         0.102700       0.000000

                          1       2    2s                5.095000       0.109507
                                                         1.159000       0.161468
                                                         0.325800       0.154871
                                                         0.102700       0.049575

                          1       3    3s                5.095000       0.000000
                                                         1.159000       0.000000
                                                         0.325800       0.000000
                                                         0.102700       0.129297

                          2       1    1s                0.025260       0.045158

                          3       1    1px               1.407000       2.184277
                                                         0.388000       0.000000
                          3       1    1py               1.407000       2.184277
                                                         0.388000       0.000000
                          3       1    1pz               1.407000       2.184277
                                                         0.388000       0.000000

                          3       2    2px               1.407000       0.000000
                                                         0.388000       0.436495
                          3       2    2py               1.407000       0.000000
                                                         0.388000       0.436495
                          3       2    2pz               1.407000       0.000000
                                                         0.388000       0.436495

                          4       1    1px               0.102000       0.082166
                          4       1    1py               0.102000       0.082166
                          4       1    1pz               0.102000       0.082166

                          5       1    1dx2              1.057000       1.813597
                          5       1    1dxy              1.057000       3.141241
                          5       1    1dxz              1.057000       3.141241
                          5       1    1dy2              1.057000       1.813597
                          5       1    1dyz              1.057000       3.141241
                          5       1    1dz2              1.057000       1.813597

                          6       1    1dx2              0.247000       0.142439
                          6       1    1dxy              0.247000       0.246712
                          6       1    1dxz              0.247000       0.246712
                          6       1    1dy2              0.247000       0.142439
                          6       1    1dyz              0.247000       0.246712
                          6       1    1dz2              0.247000       0.142439

     AE Potential information for                                            ALL

       Description:                                       All-electron potential
                                          Krack, Parrinello, PCCP 2, 2105 (2000)

       Gaussian exponent of the core charge distribution:              12.500000
       Electronic configuration (s p d ...):                           1   0   0

  2. Atomic kind: C                                     Number of atoms:       2

     Orbital Basis Set                                               aug-cc-pvtz

       Number of orbital shell sets:                                           8
       Number of orbital shells:                                              14
       Number of primitive Cartesian functions:                               22
       Number of Cartesian basis functions:                                   55
       Number of spherical basis functions:                                   46
       Norm type:                                                              2

       Normalised Cartesian orbitals:

                        Set   Shell   Orbital            Exponent    Coefficient

                          1       1    1s             8236.000000       0.327184
                                                      1235.000000       0.609945
                                                       280.800000       1.030914
                                                        79.270000       1.549802
                                                        25.590000       1.904111
                                                         8.997000       1.608326
                                                         3.319000       0.606601
                                                         0.905900       0.026060
                                                         0.364300      -0.003002
                                                         0.128500       0.000365

                          1       2    2s             8236.000000       0.000000
                                                      1235.000000       0.000000
                                                       280.800000       0.000000
                                                        79.270000       0.000000
                                                        25.590000       0.000000
                                                         8.997000       0.000000
                                                         3.319000       0.000000
                                                         0.905900       0.661790
                                                         0.364300       0.000000
                                                         0.128500       0.000000

                          1       3    3s             8236.000000      -0.069627
                                                      1235.000000      -0.130363
                                                       280.800000      -0.221954
                                                        79.270000      -0.343330
                                                        25.590000      -0.452153
                                                         8.997000      -0.469816
                                                         3.319000      -0.298547
                                                         0.905900       0.092903
                                                         0.364300       0.200079
                                                         0.128500       0.060480

                          1       4    4s             8236.000000       0.000000
                                                      1235.000000       0.000000
                                                       280.800000       0.000000
                                                        79.270000       0.000000
                                                        25.590000       0.000000
                                                         8.997000       0.000000
                                                         3.319000       0.000000
                                                         0.905900       0.000000
                                                         0.364300       0.000000
                                                         0.128500       0.152963

                          2       1    1s                0.044020       0.068493

                          3       1    1px              18.710000       0.000000
                                                         4.133000       0.000000
                                                         1.200000       0.000000
                                                         0.382700       0.429055
                                                         0.120900       0.000000
                          3       1    1py              18.710000       0.000000
                                                         4.133000       0.000000
                                                         1.200000       0.000000
                                                         0.382700       0.429055
                                                         0.120900       0.000000
                          3       1    1pz              18.710000       0.000000
                                                         4.133000       0.000000
                                                         1.200000       0.000000
                                                         0.382700       0.429055
                                                         0.120900       0.000000

                          3       2    2px              18.710000       0.778253
                                                         4.133000       0.729662
                                                         1.200000       0.519563
                                                         0.382700       0.214960
                                                         0.120900       0.034896
                          3       2    2py              18.710000       0.778253
                                                         4.133000       0.729662
                                                         1.200000       0.519563
                                                         0.382700       0.214960
                                                         0.120900       0.034896
                          3       2    2pz              18.710000       0.778253
                                                         4.133000       0.729662
                                                         1.200000       0.519563
                                                         0.382700       0.214960
                                                         0.120900       0.034896

                          3       3    3px              18.710000       0.000000
                                                         4.133000       0.000000
                                                         1.200000       0.000000
                                                         0.382700       0.000000
                                                         0.120900       0.101619
                          3       3    3py              18.710000       0.000000
                                                         4.133000       0.000000
                                                         1.200000       0.000000
                                                         0.382700       0.000000
                                                         0.120900       0.101619
                          3       3    3pz              18.710000       0.000000
                                                         4.133000       0.000000
                                                         1.200000       0.000000
                                                         0.382700       0.000000
                                                         0.120900       0.101619

                          4       1    1px               0.035690       0.022112
                          4       1    1py               0.035690       0.022112
                          4       1    1pz               0.035690       0.022112

                          5       1    1dx2              1.097000       1.935401
                                                         0.318000       0.000000
                          5       1    1dxy              1.097000       3.352214
                                                         0.318000       0.000000
                          5       1    1dxz              1.097000       3.352214
                                                         0.318000       0.000000
                          5       1    1dy2              1.097000       1.935401
                                                         0.318000       0.000000
                          5       1    1dyz              1.097000       3.352214
                                                         0.318000       0.000000
                          5       1    1dz2              1.097000       1.935401
                                                         0.318000       0.000000

                          5       2    2dx2              1.097000       0.000000
                                                         0.318000       0.221644
                          5       2    2dxy              1.097000       0.000000
                                                         0.318000       0.383899
                          5       2    2dxz              1.097000       0.000000
                                                         0.318000       0.383899
                          5       2    2dy2              1.097000       0.000000
                                                         0.318000       0.221644
                          5       2    2dyz              1.097000       0.000000
                                                         0.318000       0.383899
                          5       2    2dz2              1.097000       0.000000
                                                         0.318000       0.221644

                          6       1    1dx2              0.100000       0.029269
                          6       1    1dxy              0.100000       0.050696
                          6       1    1dxz              0.100000       0.050696
                          6       1    1dy2              0.100000       0.029269
                          6       1    1dyz              0.100000       0.050696
                          6       1    1dz2              0.100000       0.029269

                          7       1    1fx3              0.761000       0.796288
                          7       1    1fx2y             0.761000       1.780553
                          7       1    1fx2z             0.761000       1.780553
                          7       1    1fxy2             0.761000       1.780553
                          7       1    1fxyz             0.761000       3.084008
                          7       1    1fxz2             0.761000       1.780553
                          7       1    1fy3              0.761000       0.796288
                          7       1    1fy2z             0.761000       1.780553
                          7       1    1fyz2             0.761000       1.780553
                          7       1    1fz3              0.761000       0.796288

                          8       1    1fx3              0.268000       0.076078
                          8       1    1fx2y             0.268000       0.170115
                          8       1    1fx2z             0.268000       0.170115
                          8       1    1fxy2             0.268000       0.170115
                          8       1    1fxyz             0.268000       0.294648
                          8       1    1fxz2             0.268000       0.170115
                          8       1    1fy3              0.268000       0.076078
                          8       1    1fy2z             0.268000       0.170115
                          8       1    1fyz2             0.268000       0.170115
                          8       1    1fz3              0.268000       0.076078

     RI Auxiliary Basis Set                                    aug-cc-pvtz-rifit

       Number of orbital shell sets:                                          28
       Number of orbital shells:                                              28
       Number of primitive Cartesian functions:                               28
       Number of Cartesian basis functions:                                  136
       Number of spherical basis functions:                                  106
       Norm type:                                                              2

       Normalised Cartesian orbitals:

                        Set   Shell   Orbital            Exponent    Coefficient

                          1       1    1s              280.556612      48.856851

                          2       1    1s               60.230247      15.408880

                          3       1    1s               22.116651       7.268581

                          4       1    1s                6.862093       3.021708

                          5       1    1s                1.562255       0.995919

                          6       1    1s                0.912450       0.665376

                          7       1    1s                0.502749       0.425524

                          8       1    1s                0.215823       0.225675

                          9       1    1s                0.101536       0.128196

                         10       1    1px              24.231865      76.634379
                         10       1    1py              24.231865      76.634379
                         10       1    1pz              24.231865      76.634379

                         11       1    1px               6.476451      14.726905
                         11       1    1py               6.476451      14.726905
                         11       1    1pz               6.476451      14.726905

                         12       1    1px               2.129088       3.665914
                         12       1    1py               2.129088       3.665914
                         12       1    1pz               2.129088       3.665914

                         13       1    1px               1.037564       1.492652
                         13       1    1py               1.037564       1.492652
                         13       1    1pz               1.037564       1.492652

                         14       1    1px               0.549413       0.674238
                         14       1    1py               0.549413       0.674238
                         14       1    1pz               0.549413       0.674238

                         15       1    1px               0.281527       0.292307
                         15       1    1py               0.281527       0.292307
                         15       1    1pz               0.281527       0.292307

                         16       1    1px               0.115060       0.095520
                         16       1    1py               0.115060       0.095520
                         16       1    1pz               0.115060       0.095520

                         17       1    1dx2              9.718981      88.053322
                         17       1    1dxy              9.718981     152.512828
                         17       1    1dxz              9.718981     152.512828
                         17       1    1dy2              9.718981      88.053322
                         17       1    1dyz              9.718981     152.512828
                         17       1    1dz2              9.718981      88.053322

                         18       1    1dx2              3.035148      11.487463
                         18       1    1dxy              3.035148      19.896869
                         18       1    1dxz              3.035148      19.896869
                         18       1    1dy2              3.035148      11.487463
                         18       1    1dyz              3.035148      19.896869
                         18       1    1dz2              3.035148      11.487463

                         19       1    1dx2              1.467774       3.221535
                         19       1    1dxy              1.467774       5.579863
                         19       1    1dxz              1.467774       5.579863
                         19       1    1dy2              1.467774       3.221535
                         19       1    1dyz              1.467774       5.579863
                         19       1    1dz2              1.467774       3.221535

                         20       1    1dx2              0.573708       0.622471
                         20       1    1dxy              0.573708       1.078151
                         20       1    1dxz              0.573708       1.078151
                         20       1    1dy2              0.573708       0.622471
                         20       1    1dyz              0.573708       1.078151
                         20       1    1dz2              0.573708       0.622471

                         21       1    1dx2              0.290556       0.189261
                         21       1    1dxy              0.290556       0.327810
                         21       1    1dxz              0.290556       0.327810
                         21       1    1dy2              0.290556       0.189261
                         21       1    1dyz              0.290556       0.327810
                         21       1    1dz2              0.290556       0.189261

                         22       1    1dx2              0.148905       0.058749
                         22       1    1dxy              0.148905       0.101756
                         22       1    1dxz              0.148905       0.101756
                         22       1    1dy2              0.148905       0.058749
                         22       1    1dyz              0.148905       0.101756
                         22       1    1dz2              0.148905       0.058749

                         23       1    1fx3              2.275620       9.363300
                         23       1    1fx2y             2.275620      20.936975
                         23       1    1fx2z             2.275620      20.936975
                         23       1    1fxy2             2.275620      20.936975
                         23       1    1fxyz             2.275620      36.263904
                         23       1    1fxz2             2.275620      20.936975
                         23       1    1fy3              2.275620       9.363300
                         23       1    1fy2z             2.275620      20.936975
                         23       1    1fyz2             2.275620      20.936975
                         23       1    1fz3              2.275620       9.363300

                         24       1    1fx3              1.196890       2.205852
                         24       1    1fx2y             1.196890       4.932435
                         24       1    1fx2z             1.196890       4.932435
                         24       1    1fxy2             1.196890       4.932435
                         24       1    1fxyz             1.196890       8.543228
                         24       1    1fxz2             1.196890       4.932435
                         24       1    1fy3              1.196890       2.205852
                         24       1    1fy2z             1.196890       4.932435
                         24       1    1fyz2             1.196890       4.932435
                         24       1    1fz3              1.196890       2.205852

                         25       1    1fx3              0.541575       0.370413
                         25       1    1fx2y             0.541575       0.828268
                         25       1    1fx2z             0.541575       0.828268
                         25       1    1fxy2             0.541575       0.828268
                         25       1    1fxyz             0.541575       1.434603
                         25       1    1fxz2             0.541575       0.828268
                         25       1    1fy3              0.541575       0.370413
                         25       1    1fy2z             0.541575       0.828268
                         25       1    1fyz2             0.541575       0.828268
                         25       1    1fz3              0.541575       0.370413

                         26       1    1fx3              0.201793       0.040178
                         26       1    1fx2y             0.201793       0.089842
                         26       1    1fx2z             0.201793       0.089842
                         26       1    1fxy2             0.201793       0.089842
                         26       1    1fxyz             0.201793       0.155610
                         26       1    1fxz2             0.201793       0.089842
                         26       1    1fy3              0.201793       0.040178
                         26       1    1fy2z             0.201793       0.089842
                         26       1    1fyz2             0.201793       0.089842
                         26       1    1fz3              0.201793       0.040178

                         27       1    1gx4              1.216610       1.908103
                         27       1    1gx3y             1.216610       5.048367
                         27       1    1gx3z             1.216610       5.048367
                         27       1    1gx2y2            1.216610       6.517414
                         27       1    1gx2yz            1.216610      11.288491
                         27       1    1gx2z2            1.216610       6.517414
                         27       1    1gxy3             1.216610       5.048367
                         27       1    1gxy2z            1.216610      11.288491
                         27       1    1gxyz2            1.216610      11.288491
                         27       1    1gxz3             1.216610       5.048367
                         27       1    1gy4              1.216610       1.908103
                         27       1    1gy3z             1.216610       5.048367
                         27       1    1gy2z2            1.216610       6.517414
                         27       1    1gyz3             1.216610       5.048367
                         27       1    1gz4              1.216610       1.908103

                         28       1    1gx4              0.435998       0.113505
                         28       1    1gx3y             0.435998       0.300307
                         28       1    1gx3z             0.435998       0.300307
                         28       1    1gx2y2            0.435998       0.387695
                         28       1    1gx2yz            0.435998       0.671507
                         28       1    1gx2z2            0.435998       0.387695
                         28       1    1gxy3             0.435998       0.300307
                         28       1    1gxy2z            0.435998       0.671507
                         28       1    1gxyz2            0.435998       0.671507
                         28       1    1gxz3             0.435998       0.300307
                         28       1    1gy4              0.435998       0.113505
                         28       1    1gy3z             0.435998       0.300307
                         28       1    1gy2z2            0.435998       0.387695
                         28       1    1gyz3             0.435998       0.300307
                         28       1    1gz4              0.435998       0.113505

       Atomic covalent radius [Angstrom]:                                  0.770

       Atomic van der Waals radius [Angstrom]:                             1.700

     The atoms of this atomic kind are PAW atoms (GAPW):
       Hard Gaussian function radius:                                      1.512
       Rho0 radius:                                                        1.512
       Maximum GTO radius used for PAW projector construction:            24.566

     GAPW Soft Basis Set                                        aug-cc-pvtz_soft

       Number of orbital shell sets:                                           8
       Number of orbital shells:                                              14
       Number of primitive Cartesian functions:                               15
       Number of Cartesian basis functions:                                   55
       Number of spherical basis functions:                                   46
       Norm type:                                                              2

       Normalised Cartesian orbitals:

                        Set   Shell   Orbital            Exponent    Coefficient

                          1       1    1s                3.319000       0.606601
                                                         0.905900       0.026060
                                                         0.364300      -0.003002
                                                         0.128500       0.000365

                          1       2    2s                3.319000       0.000000
                                                         0.905900       0.661790
                                                         0.364300       0.000000
                                                         0.128500       0.000000

                          1       3    3s                3.319000      -0.298547
                                                         0.905900       0.092903
                                                         0.364300       0.200079
                                                         0.128500       0.060480

                          1       4    4s                3.319000       0.000000
                                                         0.905900       0.000000
                                                         0.364300       0.000000
                                                         0.128500       0.152963

                          2       1    1s                0.044020       0.068493

                          3       1    1px               4.133000       0.000000
                                                         1.200000       0.000000
                                                         0.382700       0.429055
                                                         0.120900       0.000000
                          3       1    1py               4.133000       0.000000
                                                         1.200000       0.000000
                                                         0.382700       0.429055
                                                         0.120900       0.000000
                          3       1    1pz               4.133000       0.000000
                                                         1.200000       0.000000
                                                         0.382700       0.429055
                                                         0.120900       0.000000

                          3       2    2px               4.133000       0.729662
                                                         1.200000       0.519563
                                                         0.382700       0.214960
                                                         0.120900       0.034896
                          3       2    2py               4.133000       0.729662
                                                         1.200000       0.519563
                                                         0.382700       0.214960
                                                         0.120900       0.034896
                          3       2    2pz               4.133000       0.729662
                                                         1.200000       0.519563
                                                         0.382700       0.214960
                                                         0.120900       0.034896

                          3       3    3px               4.133000       0.000000
                                                         1.200000       0.000000
                                                         0.382700       0.000000
                                                         0.120900       0.101619
                          3       3    3py               4.133000       0.000000
                                                         1.200000       0.000000
                                                         0.382700       0.000000
                                                         0.120900       0.101619
                          3       3    3pz               4.133000       0.000000
                                                         1.200000       0.000000
                                                         0.382700       0.000000
                                                         0.120900       0.101619

                          4       1    1px               0.035690       0.022112
                          4       1    1py               0.035690       0.022112
                          4       1    1pz               0.035690       0.022112

                          5       1    1dx2              1.097000       1.935401
                                                         0.318000       0.000000
                          5       1    1dxy              1.097000       3.352214
                                                         0.318000       0.000000
                          5       1    1dxz              1.097000       3.352214
                                                         0.318000       0.000000
                          5       1    1dy2              1.097000       1.935401
                                                         0.318000       0.000000
                          5       1    1dyz              1.097000       3.352214
                                                         0.318000       0.000000
                          5       1    1dz2              1.097000       1.935401
                                                         0.318000       0.000000

                          5       2    2dx2              1.097000       0.000000
                                                         0.318000       0.221644
                          5       2    2dxy              1.097000       0.000000
                                                         0.318000       0.383899
                          5       2    2dxz              1.097000       0.000000
                                                         0.318000       0.383899
                          5       2    2dy2              1.097000       0.000000
                                                         0.318000       0.221644
                          5       2    2dyz              1.097000       0.000000
                                                         0.318000       0.383899
                          5       2    2dz2              1.097000       0.000000
                                                         0.318000       0.221644

                          6       1    1dx2              0.100000       0.029269
                          6       1    1dxy              0.100000       0.050696
                          6       1    1dxz              0.100000       0.050696
                          6       1    1dy2              0.100000       0.029269
                          6       1    1dyz              0.100000       0.050696
                          6       1    1dz2              0.100000       0.029269

                          7       1    1fx3              0.761000       0.796288
                          7       1    1fx2y             0.761000       1.780553
                          7       1    1fx2z             0.761000       1.780553
                          7       1    1fxy2             0.761000       1.780553
                          7       1    1fxyz             0.761000       3.084008
                          7       1    1fxz2             0.761000       1.780553
                          7       1    1fy3              0.761000       0.796288
                          7       1    1fy2z             0.761000       1.780553
                          7       1    1fyz2             0.761000       1.780553
                          7       1    1fz3              0.761000       0.796288

                          8       1    1fx3              0.268000       0.076078
                          8       1    1fx2y             0.268000       0.170115
                          8       1    1fx2z             0.268000       0.170115
                          8       1    1fxy2             0.268000       0.170115
                          8       1    1fxyz             0.268000       0.294648
                          8       1    1fxz2             0.268000       0.170115
                          8       1    1fy3              0.268000       0.076078
                          8       1    1fy2z             0.268000       0.170115
                          8       1    1fyz2             0.268000       0.170115
                          8       1    1fz3              0.268000       0.076078

     AE Potential information for                                            ALL

       Description:                                       All-electron potential
                                          Krack, Parrinello, PCCP 2, 2105 (2000)

       Gaussian exponent of the core charge distribution:               4.109048
       Electronic configuration (s p d ...):                           4   2   0


 MOLECULE KIND INFORMATION


 All atoms are their own molecule, skipping detailed information


 TOTAL NUMBERS AND MAXIMUM NUMBERS

  Total number of            - Atomic kinds:                                   2
                             - Atoms:                                          6
                             - Shell sets:                                    40
                             - Shells:                                        64
                             - Primitive Cartesian functions:                 88
                             - Cartesian basis functions:                    210
                             - Spherical basis functions:                    184

  Maximum angular momentum of the orbital basis functions:                     3


 MODULE QUICKSTEP: ATOMIC COORDINATES IN ANGSTROM

   Atom Kind Element         X             Y             Z       Z(eff)     Mass
      1    1 H     1     10.000000     10.923274     11.238289   1.0000   1.0079
      2    1 H     1     10.000000      9.076726     11.238289   1.0000   1.0079
      3    1 H     1     10.000000     10.923274      8.761711   1.0000   1.0079
      4    1 H     1     10.000000      9.076726      8.761711   1.0000   1.0079
      5    2 C     6     10.000000     10.000000     10.668188   6.0000  12.0107
      6    2 C     6     10.000000     10.000000      9.331812   6.0000  12.0107



 SCF PARAMETERS         Density guess:                                   RESTART
                        --------------------------------------------------------
                        max_scf:                                             200
                        max_scf_history:                                       0
                        max_diis:                                              4
                        --------------------------------------------------------
                        eps_scf:                                        1.00E-09
                        eps_scf_history:                                0.00E+00
                        eps_diis:                                       1.00E-01
                        eps_eigval:                                     1.00E-05
                        --------------------------------------------------------
                        level_shift [a.u.]:                             0.000000
                        added MOs                                       176    0
                        --------------------------------------------------------
                        Mixing method:                            BROYDEN_MIXING
                                                charge density mixing in g-space
                        --------------------------------------------------------
                        No outer SCF

 PW_GRID| Information for grid number                                          1
 PW_GRID| Grid distributed over                                    64 processors
 PW_GRID| Real space group dimensions                                    64    1
 PW_GRID| the grid is blocked:                                                NO
 PW_GRID| Cutoff [a.u.]                                                    300.0
 PW_GRID| spherical cutoff:                                                   NO
 PW_GRID|   Bounds   1           -150     149                Points:         300
 PW_GRID|   Bounds   2           -150     149                Points:         300
 PW_GRID|   Bounds   3           -150     149                Points:         300
 PW_GRID| Volume element (a.u.^3)  0.2000E-02     Volume (a.u.^3)     53986.6767
 PW_GRID| Grid span                                                    FULLSPACE
 PW_GRID|   Distribution                         Average         Max         Min
 PW_GRID|   G-Vectors                           421875.0      422100      421800
 PW_GRID|   G-Rays                                1406.2        1407        1406
 PW_GRID|   Real Space Points                   421875.0      450000      360000

 PW_GRID| Information for grid number                                          2
 PW_GRID| Number of the reference grid                                         1
 PW_GRID| Grid distributed over                                    64 processors
 PW_GRID| Real space group dimensions                                    64    1
 PW_GRID| the grid is blocked:                                                NO
 PW_GRID| Cutoff [a.u.]                                                    100.0
 PW_GRID| spherical cutoff:                                                   NO
 PW_GRID|   Bounds   1            -90      89                Points:         180
 PW_GRID|   Bounds   2            -90      89                Points:         180
 PW_GRID|   Bounds   3            -90      89                Points:         180
 PW_GRID| Volume element (a.u.^3)  0.9257E-02     Volume (a.u.^3)     53986.6767
 PW_GRID| Grid span                                                    FULLSPACE
 PW_GRID|   Distribution                         Average         Max         Min
 PW_GRID|   G-Vectors                            91125.0       91440       90720
 PW_GRID|   G-Rays                                 506.2         508         504
 PW_GRID|   Real Space Points                    91125.0       97200       64800

 PW_GRID| Information for grid number                                          3
 PW_GRID| Number of the reference grid                                         1
 PW_GRID| Grid distributed over                                    64 processors
 PW_GRID| Real space group dimensions                                    64    1
 PW_GRID| the grid is blocked:                                                NO
 PW_GRID| Cutoff [a.u.]                                                     33.3
 PW_GRID| spherical cutoff:                                                   NO
 PW_GRID|   Bounds   1            -50      49                Points:         100
 PW_GRID|   Bounds   2            -50      49                Points:         100
 PW_GRID|   Bounds   3            -50      49                Points:         100
 PW_GRID| Volume element (a.u.^3)  0.5399E-01     Volume (a.u.^3)     53986.6767
 PW_GRID| Grid span                                                    FULLSPACE
 PW_GRID|   Distribution                         Average         Max         Min
 PW_GRID|   G-Vectors                            15625.0       15800       15500
 PW_GRID|   G-Rays                                 156.2         158         155
 PW_GRID|   Real Space Points                    15625.0       20000       10000

 PW_GRID| Information for grid number                                          4
 PW_GRID| Number of the reference grid                                         1
 PW_GRID| Grid distributed over                                    64 processors
 PW_GRID| Real space group dimensions                                     8    8
 PW_GRID| the grid is blocked:                                                NO
 PW_GRID| Cutoff [a.u.]                                                     11.1
 PW_GRID| spherical cutoff:                                                   NO
 PW_GRID|   Bounds   1            -30      29                Points:          60
 PW_GRID|   Bounds   2            -30      29                Points:          60
 PW_GRID|   Bounds   3            -30      29                Points:          60
 PW_GRID| Volume element (a.u.^3)  0.2499         Volume (a.u.^3)     53986.6767
 PW_GRID| Grid span                                                    FULLSPACE
 PW_GRID|   Distribution                         Average         Max         Min
 PW_GRID|   G-Vectors                             3375.0        3540        3240
 PW_GRID|   G-Rays                                  56.2          59          54
 PW_GRID|   Real Space Points                     3375.0        3840        2940

 POISSON| Solver                                                         WAVELET
 POISSON| Wavelet| Scaling function                                           40
 POISSON| Periodicity                                                       NONE

 RS_GRID| Information for grid number                                          1
 RS_GRID|   Bounds   1           -150     149                Points:         300
 RS_GRID|   Bounds   2           -150     149                Points:         300
 RS_GRID|   Bounds   3           -150     149                Points:         300
 RS_GRID| Real space distribution over                                  4 groups
 RS_GRID| Real space distribution along direction                              1
 RS_GRID| Border size                                                         24
 RS_GRID| Real space distribution over                                  4 groups
 RS_GRID| Real space distribution along direction                              2
 RS_GRID| Border size                                                         24
 RS_GRID| Real space distribution over                                  4 groups
 RS_GRID| Real space distribution along direction                              3
 RS_GRID| Border size                                                         24
 RS_GRID|   Distribution                         Average         Max         Min
 RS_GRID|   Planes                                 123.0         123         123
 RS_GRID|   Distribution                         Average         Max         Min
 RS_GRID|   Planes                                 123.0         123         123
 RS_GRID|   Distribution                         Average         Max         Min
 RS_GRID|   Planes                                 123.0         123         123

 RS_GRID| Information for grid number                                          2
 RS_GRID|   Bounds   1            -90      89                Points:         180
 RS_GRID|   Bounds   2            -90      89                Points:         180
 RS_GRID|   Bounds   3            -90      89                Points:         180
 RS_GRID| Real space distribution over                                  4 groups
 RS_GRID| Real space distribution along direction                              1
 RS_GRID| Border size                                                         27
 RS_GRID| Real space distribution over                                  4 groups
 RS_GRID| Real space distribution along direction                              2
 RS_GRID| Border size                                                         27
 RS_GRID| Real space distribution over                                  4 groups
 RS_GRID| Real space distribution along direction                              3
 RS_GRID| Border size                                                         27
 RS_GRID|   Distribution                         Average         Max         Min
 RS_GRID|   Planes                                  99.0          99          99
 RS_GRID|   Distribution                         Average         Max         Min
 RS_GRID|   Planes                                  99.0          99          99
 RS_GRID|   Distribution                         Average         Max         Min
 RS_GRID|   Planes                                  99.0          99          99

 RS_GRID| Information for grid number                                          3
 RS_GRID|   Bounds   1            -50      49                Points:         100
 RS_GRID|   Bounds   2            -50      49                Points:         100
 RS_GRID|   Bounds   3            -50      49                Points:         100
 RS_GRID| Real space fully replicated
 RS_GRID| Group size                                                           1

 RS_GRID| Information for grid number                                          4
 RS_GRID|   Bounds   1            -30      29                Points:          60
 RS_GRID|   Bounds   2            -30      29                Points:          60
 RS_GRID|   Bounds   3            -30      29                Points:          60
 RS_GRID| Real space fully replicated
 RS_GRID| Group size                                                           1

  HFX_INFO| Replica ID:                                                        1
  HFX_INFO| FRACTION:                                               0.2500000000
  HFX_INFO| Interaction Potential:                                       COULOMB
  HFX_INFO| EPS_SCHWARZ:                                                 1.0E-10
  HFX_INFO| EPS_SCHWARZ_FORCES                                           1.0E-08
  HFX_INFO| EPS_STORAGE_SCALING:                                         1.0E+00
  HFX_INFO| NBINS:                                                            64
  HFX_INFO| BLOCK_SIZE:                                                        1
  HFX_INFO| Number of periodic shells considered:                           NONE
  HFX_INFO| Number of periodic cells considered:                            NONE


 Extrapolation method: initial_guess

 *** WARNING in qs_initial_guess.F:308 :: User requested to restart the    ***
 *** wavefunction from the file named: Ethene-RESTART.wfn. This file does  ***
 *** not exist. Please check the existence of the file or change properly  ***
 *** the value of the keyword WFN_RESTART_FILE_NAME. Calculation continues ***
 *** using ATOMIC GUESS.                                                   ***


 Atomic guess: The first density matrix is obtained in terms of atomic orbitals
               and electronic configurations assigned to each atomic kind

 Guess for atomic kind: H

 Electronic structure
    Total number of core electrons                                          0.00
    Total number of valence electrons                                       1.00
    Total number of electrons                                               1.00
    Multiplicity                                                   not specified
    S      1.00


 *******************************************************************************
                  Iteration          Convergence                     Energy [au]
 *******************************************************************************
                          1        0.899984E-02                  -0.445273676984
                          2        0.831993E-03                  -0.445370735705
                          3        0.104223E-03                  -0.445373223017
                          4        0.123824E-06                  -0.445373248884

 Energy components [Hartree]           Total Energy ::           -0.445373248884
                                        Band Energy ::           -0.233121027105
                                     Kinetic Energy ::            0.424055116707
                                   Potential Energy ::           -0.869428365590
                                      Virial (-V/T) ::            2.050272078646
                                        Core Energy ::           -0.495782636313
                                          XC Energy ::           -0.232278681357
                                     Coulomb Energy ::            0.282688068786

 Orbital energies  State     L     Occupation   Energy[a.u.]          Energy[eV]

                       1     0          1.000      -0.233121           -6.343546


 Total Electron Density at R=0:                                         0.244200

 Guess for atomic kind: C

 Electronic structure
    Total number of core electrons                                          0.00
    Total number of valence electrons                                       6.00
    Total number of electrons                                               6.00
    Multiplicity                                                   not specified
    S      2.00  2.00
    P      2.00


 *******************************************************************************
                  Iteration          Convergence                     Energy [au]
 *******************************************************************************
                          1        0.107919                     -37.407214584056
                          2        0.944601E-01                 -37.411974260121
                          3        0.135126E-02                 -37.422101193838
[...]
 RTBSE|            1997     0.91238278E-008     0.16000000E+002                4
 RTBSE| Simulation step         Convergence     Electron number  ETRS Iterations
 RTBSE|            1998     0.44781867E-008     0.16000000E+002                5
 RTBSE| Simulation step         Convergence     Electron number  ETRS Iterations
 RTBSE|            1999     0.24013642E-008     0.16000000E+002                5

 -------------------------------------------------------------------------------
 -                                                                             -
 -                                DBCSR STATISTICS                             -
 -                                                                             -
 -------------------------------------------------------------------------------
 COUNTER                                    TOTAL       BLAS       SMM       ACC
 flops    46 x    44 x    46              2979328     100.0%      0.0%      0.0%     
 flops    46 x    44 x   106              3432704     100.0%      0.0%      0.0%     
 flops   106 x    44 x    46              3432704     100.0%      0.0%      0.0%     
 flops   106 x    44 x   106              3955072     100.0%      0.0%      0.0%     
 flops    46 x    32 x    46              6500352     100.0%      0.0%      0.0%     
 flops    46 x    32 x   106              7489536     100.0%      0.0%      0.0%     
 flops   106 x    32 x    46              7489536     100.0%      0.0%      0.0%     
 flops   106 x    32 x   106              8629248     100.0%      0.0%      0.0%     
 flops    23 x    46 x    24             12594432     100.0%      0.0%      0.0%     
 flops    46 x    23 x    24             12594432     100.0%      0.0%      0.0%     
 flops    23 x    23 x    24             15743040     100.0%      0.0%      0.0%     
 flops    46 x    64 x    46             17334272     100.0%      0.0%      0.0%     
 flops    46 x    46 x    24             18891648     100.0%      0.0%      0.0%     
 flops   106 x    64 x    46             19972096     100.0%      0.0%      0.0%     
 flops    46 x    64 x   106             19972096     100.0%      0.0%      0.0%     
 flops   106 x    64 x   106             23011328     100.0%      0.0%      0.0%     
 flops    23 x    46 x    32             83962880     100.0%      0.0%      0.0%     
 flops    46 x    23 x    32             83962880     100.0%      0.0%      0.0%     
 flops    23 x    23 x    32            104953600     100.0%      0.0%      0.0%     
 flops    46 x    46 x    32            125944320     100.0%      0.0%      0.0%     
 flops inhomo. stacks                           0       0.0%      0.0%      0.0%
 flops total                       582.845504E+06     100.0%      0.0%      0.0%
 flops max/rank                     53.651584E+06     100.0%      0.0%      0.0%
 matmuls inhomo. stacks                         0       0.0%      0.0%      0.0%
 matmuls total                               8100     100.0%      0.0%      0.0%
 number of processed stacks                  8100     100.0%      0.0%      0.0%
 average stack size                                     1.0       0.0       0.0
 marketing flops                   157.783424E+06
 -------------------------------------------------------------------------------
 # multiplications                             63
 max memory usage/rank              44.889764E+09
 # max total images/rank                        1
 # max 3D layers                                1
 # MPI messages exchanged                   56448
 MPI messages size (bytes):
  total size                       252.659456E+06
  min size                           0.000000E+00
  max size                          89.888000E+03
  average size                       4.475968E+03
 MPI breakdown and total messages size (bytes):
             size <=      128               24612                        0
       128 < size <=     8192               20832                117548032
      8192 < size <=    32768               10794                124664064
     32768 < size <=   131072                 210                 10447360
    131072 < size <=  4194304                   0                        0
   4194304 < size <= 16777216                   0                        0
  16777216 < size                               0                        0
 -------------------------------------------------------------------------------
 -                                                                             -
 -                      DBCSR MESSAGE PASSING PERFORMANCE                      -
 -                                                                             -
 -------------------------------------------------------------------------------
 ROUTINE             CALLS      AVE VOLUME [Bytes]
 MP_Bcast               21                     12.
 MP_Allreduce          437                     11.
 MP_Alltoall        775076                  16734.
 MP_ISend             2016                   4464.
 MP_IRecv             2016                   3698.
 -------------------------------------------------------------------------------

 -------------------------------------------------------------------------------
 -                                                                             -
 -                                DBM STATISTICS                               -
 -                                                                             -
 -------------------------------------------------------------------------------
    M  x    N  x    K                                          COUNT     PERCENT
    ?  x    ?  x    ?                                        1096668      49.98%
 >999  x   ??  x   ??                                         549144      25.03%
   ??  x   ??  x >999                                         548184      24.98%
   ??  x  ???  x >999                                             60       0.00%
  ???  x   ??  x >999                                             60       0.00%
  ???  x  ???  x >999                                             30       0.00%
 -------------------------------------------------------------------------------

 -------------------------------------------------------------------------------
 -                                                                             -
 -                                GRID STATISTICS                              -
 -                                                                             -
 -------------------------------------------------------------------------------
 LP    KERNEL             BACKEND                              COUNT     PERCENT
 2     collocate ortho    CPU                                   3339      14.32%
 2     integrate ortho    CPU                                   3339      14.32%
 3     collocate ortho    CPU                                   2520      10.81%
 3     integrate ortho    CPU                                   2520      10.81%
 1     collocate ortho    CPU                                   2394      10.26%
 1     integrate ortho    CPU                                   2394      10.26%
 4     collocate ortho    CPU                                   1512       6.48%
 4     integrate ortho    CPU                                   1512       6.48%
 0     collocate ortho    CPU                                   1071       4.59%
 0     integrate ortho    CPU                                   1071       4.59%
 5     collocate ortho    CPU                                    378       1.62%
 5     integrate ortho    CPU                                    378       1.62%
 2     collocate general  CPU                                    378       1.62%
 2     integrate general  CPU                                    378       1.62%
 6     collocate ortho    CPU                                     63       0.27%
 6     integrate ortho    CPU                                     63       0.27%
 0     collocate general  CPU                                      6       0.03%
 0     integrate general  CPU                                      6       0.03%
 -------------------------------------------------------------------------------

 -------------------------------------------------------------------------------
 -                                                                             -
 -                          OFFLOAD MEMPOOL STATISTICS                         -
 -                                                                             -
 -------------------------------------------------------------------------------
 Memory consumption                Number of allocations  Used [MiB]  Size [MiB]
 Device                                                7          45          45
 Host                                                 80          50          79
 -------------------------------------------------------------------------------

 MEMORY| Estimated peak process memory [MiB]                                1367

 -------------------------------------------------------------------------------
 ----                             MULTIGRID INFO                            ----
 -------------------------------------------------------------------------------
 count for grid        1:        1384204          cutoff [a.u.]          300.00
 count for grid        2:         283412          cutoff [a.u.]          100.00
 count for grid        3:         222692          cutoff [a.u.]           33.33
 count for grid        4:          83411          cutoff [a.u.]           11.11
 total gridlevel count  :        1973719

 -------------------------------------------------------------------------------
 -                                                                             -
 -                         MESSAGE PASSING PERFORMANCE                         -
 -                                                                             -
 -------------------------------------------------------------------------------

 ROUTINE             CALLS      AVE VOLUME [Bytes]
 MP_Group          1248664
 MP_Bcast           671105                     48.
 MP_Allreduce      1408589                     83.
 MP_Sync            915438
 MP_Alltoall        611489                  46866.
 MP_SendRecv          7938                  95360.
 MP_ISendRecv        16002                  55726.
 MP_Wait            757931
 MP_comm_split      670200
 MP_ISend          1957495                 134704.
 MP_IRecv          1411111                 180258.
 -------------------------------------------------------------------------------


 -------------------------------------------------------------------------------
 -                                                                             -
 -                           R E F E R E N C E S                               -
 -                                                                             -
 -------------------------------------------------------------------------------
 
 CP2K version 2026.1 (Development Version), the CP2K developers group (2026).
 CP2K is freely available from https://www.cp2k.org/ .
 
 Š. Marek, J. Wilhelm.
 J. Chem. Theory Comput. 21, 9814-9822 (2025).
 Linear and Nonlinear Optical Properties of Molecules from Real-Time Propagation 
 Based on the Bethe–Salpeter Equation.
 https://doi.org/10.1021/acs.jctc.5c01246

 M. Graml, K. Zollner, D. Hernangómez-Pérez, P. E. Faria Junior, J. Wilhelm.
 J. Chem. Theory Comput. 20, 2202-2208 (2024).
 Low-scaling GW algorithm applied to twisted transition-metal dichalcogenide 
 heterobilayers.
 https://doi.org/10.1021/acs.jctc.3c01230

 T. D. Kuehne, M. Iannuzzi, M. Del Ben, V. V. Rybkin, P. Seewald, F. Stein, T. 
 Laino, R. Z. Khaliullin, O. Schuett, F. Schiffmann, D. Golze, J. Wilhelm, S. 
 Chulkov, M. H. Bani-Hashemian, V. Weber, U. Borstnik, M. Taillefumier, A. S. 
 Jakobovits, A. Lazzaro, H. Pabst, T. Mueller, R. Schade, M. Guidon, S. 
 Andermatt, N. Holmberg, G. K. Schenter, A. Hehn, A. Bussy, F. Belleflamme, G. 
 Tabacchi, A. Gloess, M. Lass, I. Bethune, C. J. Mundy, C. Plessl, M. Watkins, 
 J. VandeVondele, M. Krack, J. Hutter.
 J. Chem. Phys. 152, 194103 (2020).
 CP2K: An electronic structure and molecular dynamics software package - 
 Quickstep: Efficient and accurate electronic structure calculations.
 https://doi.org/10.1063/5.0007045

 O. Schuett, P. Messmer, J. Hutter, J. VandeVondele.
 Electronic Structure Calculations on Graphics Processing Units, 173-190 (2016).
 GPU-Accelerated Sparse Matrix-Matrix Multiplication for Linear Scaling Density 
 Functional Theory.
 https://doi.org/10.1002/9781118670712.ch8

 J. Hutter, M. Iannuzzi, F. Schiffmann, J. VandeVondele.
 WIREs Comput Mol Sci. 4, 15-25 (2014).
 CP2K: atomistic simulations of condensed matter systems.
 https://doi.org/10.1002/wcms.1159

 U. Borstnik, J. VandeVondele, V. Weber, J. Hutter.
 Parallel Comput. 40, 47-58 (2014).
 Sparse matrix multiplication: The distributed block-compressed sparse row 
 library.
 https://doi.org/10.1016/j.parco.2014.03.012

 M. Guidon, J. Hutter, J. VandeVondele.
 J. Chem. Theory Comput. 5, 3010-3021 (2009).
 Robust Periodic Hartree-Fock Exchange for Large-Scale Simulations Using 
 Gaussian Basis Sets.
 https://doi.org/10.1021/ct900494g

 M. Guidon, F. Schiffmann, J. Hutter, J. VandeVondele.
 J. Chem. Phys. 128, 214104 (2008).
 Ab initio molecular dynamics using hybrid density functionals.
 https://doi.org/10.1063/1.2931945

 L. Genovese, T. Deutsch, S. Goedecker.
 J. Chem. Phys. 127, 054704 (2007).
 Efficient and accurate three-dimensional Poisson solver for surface problems.
 https://doi.org/10.1063/1.2754685

 L. Genovese, T. Deutsch, A. Neelov, S. Goedecker, G. Beylkin.
 J. Chem. Phys. 125, 074105 (2006).
 Efficient solution of Poisson's equation with free boundary conditions.
 https://doi.org/10.1063/1.2335442

 M. Frigo, S. G. Johnson.
 Proc. IEEE 93, 216-231 (2005).
 The design and implementation of FFTW3.
 https://doi.org/10.1109/JPROC.2004.840301

 M. Krack, M. Parrinello.
 Phys. Chem. Chem. Phys. 2, 2105-2112 (2000).
 All-electron ab-initio molecular dynamics.
 https://doi.org/10.1039/b001167n

 G. Lippert, J. Hutter, M. Parrinello.
 Theor. Chem. Acc. 103, 124-140 (1999).
 The Gaussian and augmented-plane-wave density functional method for ab initio 
 molecular dynamics simulations.
 https://doi.org/10.1007/s002140050523

 J. P. Perdew, K. Burke, M. Ernzerhof.
 Phys. Rev. Lett. 77, 3865-3868 (1996).
 Generalized gradient approximation made simple.
 https://doi.org/10.1103/PhysRevLett.77.3865


 -------------------------------------------------------------------------------
 -                                                                             -
 -                                T I M I N G                                  -
 -                                                                             -
 -------------------------------------------------------------------------------
 SUBROUTINE                       CALLS  ASD         SELF TIME        TOTAL TIME
                                MAXIMUM       AVERAGE  MAXIMUM  AVERAGE  MAXIMUM
 CP2K                                 1  1.0    0.012    0.021 1650.951 1650.951
 run_propagation_bse                  1  2.0    0.122    0.565 1650.752 1650.764
 etrs_scf_loop                     2000  3.0    0.049    0.057 1603.005 1603.015
 update_effective_ham             10128  4.0    0.255    0.307 1443.589 1443.864
 get_sigma                        30387  5.0    0.599    0.786 1419.559 1420.311
 dbt_total                        91861  6.0    0.672    0.829 1404.380 1404.430
 dbt_contract                     91404  7.0    3.854    4.603 1367.328 1392.183
 dbt_tas_multiply                182808  9.5    0.245    0.287 1145.558 1168.829
 dbt_tas_total                   182808 10.5   11.402   13.580 1119.764 1119.811
 mp_sync                         915438 10.6  335.736  470.518  335.736  470.518
 dbt_tas_dbm                     182808 11.5    0.286    0.345  440.837  440.896
 dbm_multiply                    182808 13.5  279.423  377.396  279.423  377.396
 dbm_redistribute                274212 10.7  189.259  237.980  189.259  237.980
 dbt_copy                        122005  8.5    0.508    0.594  136.944  203.739
 dbt_reshape                      91435  9.7   66.028  145.114  122.597  183.550
 convert_to_new_pgrid            548424 11.5   36.909   65.508  155.102  182.869
 dbt_tas_mm_3N                    60836 12.5    0.083    0.099  109.383  178.826
 dbt_remap                       121548  8.0    6.614    6.933  151.733  169.282
 propagate_density                12129  4.0    0.011    0.013  155.316  155.498
 bch_propagate                    12129  5.0    0.753    1.584  155.305  155.489
 parallel_gemm_cfm               643545  6.0    0.240    0.251  138.196  149.001
 parallel_gemm_cfm_gemm          643545  7.0    0.250    0.303  137.956  148.764
 cp_cfm_gemm                     643545  8.0  137.707  148.524  137.707  148.524
 dbt_tas_mm_2                     60956 12.5    0.154    0.188  138.453  138.490
 dbt_tas_estimate_result_nze      91404 10.0   19.201   28.700  127.832  127.968
 dbt_tas_mm_1N                    60894 12.5    0.079    0.096   71.530  106.357
 dbt_tas_reshape                 243734 11.6    2.003    2.326   70.573   99.992
 mp_waitall_2                    975240 13.6   59.451   94.268   59.451   94.268
 mp_cart_create                 1289450 12.7   60.230   90.544   60.708   91.024
 reshape_mm_compatible           182808 11.5    2.021    2.241   86.462   89.891
 dbt_tas_create_split            670132 12.4    0.692    0.809   75.436   87.739
 dbt_tas_create_split_rows_or_c  670132 13.4    1.813    2.054   74.743   87.106
 change_split                    274212 12.0    0.803    0.984   81.584   85.087
 dbt_communicate_buffer           91435 10.7    0.784    1.091   42.015   76.387
 mp_sum_l                        975589 11.7   47.652   71.243   47.652   71.243
 dbt_pgrid_create_expert         243417 10.5    0.344    0.391   37.146   67.704
 dbt_nd_mp_comm                  121702  9.0    0.383    0.423   34.316   64.777
 dbt_tas_distribution_new        791838 11.8   29.650   29.947   60.648   63.841
 dbm_reserve_blocks              884419 13.6   42.499   63.085   42.499   63.085
 dbt_tas_reserve_blocks_index    701611 12.9    0.646    0.888   42.147   62.807
 dbt_tas_copy                    122035 12.0   12.542   23.201   37.120   56.788
 reshape_mm_small                182808 11.5    7.777    8.125   51.634   54.638
 mp_comm_dup                     578732 14.7   39.637   51.802   39.848   52.017
 cp_cfm_norm                     329762  6.0   16.376   46.266   16.376   46.266
 qs_energies                          1  3.0    0.006    0.006   43.309   43.314
 dbt_tas_reshape_buffer_fill     243734 12.6   22.743   41.685   22.743   41.685
 dbt_tas_replicate               182808 11.5    7.033   11.706   31.413   36.692
 scf_env_do_scf                       1  4.0    0.000    0.000   35.622   35.623
 scf_env_do_scf_inner_loop           62  5.0    0.001    0.003   35.622   35.623
 dbt_tas_reserve_blocks_templat  304843 11.8    0.580    1.185   25.553   34.924
 mp_alltoall_i                   609656 12.7   31.560   34.230   31.560   34.230
 -------------------------------------------------------------------------------

 The number of warnings for this run is : 4
 
 -------------------------------------------------------------------------------
  **** **** ******  **  PROGRAM ENDED AT                 2026-03-26 19:19:20.454
 ***** ** ***  *** **   PROGRAM RAN ON                                    cn1205
 **    ****   ******    PROGRAM RAN BY                                  eprop2d9
 ***** **    ** ** **   PROGRAM PROCESS ID                               1044575
  **** **  *******  **  PROGRAM STOPPED IN /scratch/hpc-prf-rqsued/eprop2d9_Step
                                           an/cp2k_rt.1263443
