     206
 i =        2, E =      -907.5405038570
  C         8.1645463982        7.0926755384        6.8750000013
  C        10.6499999929        6.9742620113        6.8749999978
  C        13.1354535998        7.0926755339        6.8749999995
  C         6.9498264689        7.7899621250        6.8749999995
  C        14.3501735261        7.7899621229        6.8749999994
  C         9.3756258432        7.7712036354        6.8749999988
  C        11.9243741377        7.7712036322        6.8750000025
  C         6.9514449044        9.1718646258        6.8750000020
  C         9.3984945073        9.1910247685        6.8750000002
  C        11.9015054770        9.1910247679        6.8750000030
  C        14.3485550984        9.1718646239        6.8750000004
  C         8.1612868050        9.9027279119        6.8750000002
  C        10.6499999885        9.9145656419        6.8749999929
  C        13.1387131880        9.9027279187        6.8749999976
  H         6.0056072017        7.2453234089        6.8749999991
  H        15.2943927857        7.2453234103        6.8750000001
  H         5.9976680252        9.6936582198        6.8749999995
  H        15.3023319705        9.6936582184        6.8749999996
  C         8.1747204291       11.3503330119        6.8749999974
  C        10.6499999881       11.3245510290        6.8750000046
  C        13.1252795654       11.3503330025        6.8749999977
  C         6.9717146557       12.0958938314        6.8750000005
  C         9.4069163995       12.0524364119        6.8750000014
  C        11.8930835905       12.0524364046        6.8750000022
  C        14.3282853372       12.0958938471        6.8749999978
  C         6.9742933297       13.4661196329        6.8749999997
  C         9.4114076446       13.4872480132        6.8750000002
  C        11.8885923362       13.4872480159        6.8749999971
  C        14.3257066618       13.4661196154        6.8750000027
  C         8.1826235771       14.2025563443        6.8750000004
  C        10.6499999961       14.2082725305        6.8750000019
  C        13.1173764316       14.2025563536        6.8750000018
  H         6.0126367628       11.5842231902        6.8750000008
  H        15.2873632379       11.5842231826        6.8750000012
  H         6.0183316145       13.9836156278        6.8749999997
  H        15.2816683757       13.9836156333        6.8750000003
  C         8.1834544070       15.6427958457        6.8749999986
  C        10.6499999907       15.6286951165        6.8749999986
  C        13.1165455782       15.6427958680        6.8750000002
  C         6.9766541613       16.3856497858        6.8750000011
  C         9.4131576973       16.3514630163        6.8749999996
  C        11.8868422925       16.3514629980        6.8749999996
  C        14.3233458336       16.3856497302        6.8749999978
  C         6.9764712119       17.7551069344        6.8749999994
  C         9.4133103380       17.7856780390        6.8749999969
  C        11.8866896775       17.7856780635        6.8750000005
  C        14.3235287926       17.7551070047        6.8749999994
  C         8.1833999772       18.4967195512        6.8750000013
  C        10.6499999831       18.5057815497        6.8750000030
  C        13.1165999837       18.4967195423        6.8749999995
  H         6.0185144631       15.8721705164        6.8750000003
  H        15.2814855214       15.8721705302        6.8750000015
  H         6.0191010556       18.2702856806        6.8750000003
  H        15.2808989243       18.2702856746        6.8750000003
  C         8.1830218188       19.9357959147        6.8750000029
  C        10.6499999987       19.9258662764        6.8749999991
  C        13.1169781789       19.9357958575        6.8749999986
  C         6.9757976686       20.6778944574        6.8750000044
  C         9.4129375883       20.6456906215        6.8749999944
  C        11.8870623841       20.6456906554        6.8750000018
  C        14.3242023097       20.6778946375        6.8750000004
  C         6.9757057611       22.0474925689        6.8749999981
  C         9.4129240630       22.0793609290        6.8750000021
  C        11.8870758726       22.0793609000        6.8750000012
  C        14.3242941987       22.0474923979        6.8749999983
  C         8.1828218345       22.7892969149        6.8749999992
  C        10.6500000205       22.7986720413        6.8750000038
  C        13.1171782015       22.7892969523        6.8749999996
  H         6.0180414916       20.1638499840        6.8749999993
  H        15.2819585332       20.1638499607        6.8749999999
  H         6.0183663584       22.5624456767        6.8749999994
  H        15.2816336647       22.5624456948        6.8750000006
  C         8.1825855102       24.2278165703        6.8749999997
  C        10.6499999762       24.2183443900        6.8749999953
  C        13.1174144397       24.2278166245        6.8750000014
  C         6.9753506497       24.9698595415        6.8750000037
  C         9.4127916007       24.9376215716        6.8750000015
  C        11.8872084138       24.9376215061        6.8749999996
  C        14.3246493960       24.9698592633        6.8750000003
  C         6.9753610003       26.3389056246        6.8749999929
  C         9.4128061627       26.3708755027        6.8750000011
  C        11.8871938579       26.3708755722        6.8750000002
  C        14.3246390664       26.3389058908        6.8749999990
  C         8.1826185710       27.0805988799        6.8750000016
  C        10.6499999918       27.0899444768        6.8749999939
  C        13.1173813842       27.0805988313        6.8749999988
  H         6.0176864652       24.4553176020        6.8749999991
  H        15.2823134677       24.4553176396        6.8749999987
  H         6.0179850225       26.8541049240        6.8750000019
  H        15.2820149047       26.8541048879        6.8750000011
  C         8.1825831687       28.5188135527        6.8749999995
  C        10.6499999882       28.5093950514        6.8749999993
  C        13.1174167929       28.5188136186        6.8749999994
  C         6.9752168346       29.2602834331        6.8749999988
  C         9.4127557940       29.2283544514        6.8749999992
  C        11.8872442342       29.2283543707        6.8750000003
  C        14.3247832379       29.2602831148        6.8749999995
  C         6.9752050427       30.6295273345        6.8750000024
  C         9.4127508916       30.6615467370        6.8749999974
  C        11.8872491480       30.6615468183        6.8750000003
  C        14.3247950113       30.6295276677        6.8750000007
  C         8.1825589435       31.3711223822        6.8749999990
  C        10.6499999653       31.3805828491        6.8749999992
  C        13.1174409918       31.3711223052        6.8750000023
  H         6.0178433771       28.7454178965        6.8750000002
  H        15.2821565573       28.7454179348        6.8750000006
  H         6.0177199034       31.1441697497        6.8749999997
  H        15.2822800234       31.1441697008        6.8749999999
  C         8.1826083287       32.8093281074        6.8750000008
  C        10.6500000329       32.7999857464        6.8750000016
  C        13.1173917295       32.8093280497        6.8749999979
  C         6.9753658914       33.5511035420        6.8749999989
  C         9.4128109283       33.5191191169        6.8749999991
  C        11.8871889834       33.5191191656        6.8750000008
  C        14.3246340562       33.5511037863        6.8749999995
  C         6.9753548384       34.9201216782        6.8750000017
  C         9.4127935488       34.9523729121        6.8750000007
  C        11.8872064211       34.9523728608        6.8750000001
  C        14.3246451328       34.9201214318        6.8749999996
  C         8.1825826368       35.6621876276        6.8750000003
  C        10.6500000030       35.6716568530        6.8749999985
  C        13.1174173702       35.6621876968        6.8749999981
  H         6.0179810773       33.0358874725        6.8750000001
  H        15.2820189569       33.0358874380        6.8750000006
  H         6.0176828843       35.4346849540        6.8750000001
  H        15.2823171434       35.4346849938        6.8750000012
  C         8.1828244592       37.1007065890        6.8749999968
  C        10.6499999649       37.0913292957        6.8750000015
  C        13.1171754800       37.1007065983        6.8750000005
  C         6.9757035392       37.8424934026        6.8749999958
  C         9.4129220073       37.8106339199        6.8750000017
  C        11.8870780358       37.8106338912        6.8750000003
  C        14.3242964940       37.8424932919        6.8749999968
  C         6.9757958789       39.2121192966        6.8750000061
  C         9.4129364705       39.2443142907        6.8749999999
  C        11.8870635000       39.2443143242        6.8749999960
  C        14.3242041298       39.2121194038        6.8750000028
  C         8.1830231996       39.9542001682        6.8750000006
  C        10.6499999984       39.9641316696        6.8749999980
  C        13.1169767882       39.9542001523        6.8750000030
  H         6.0183687997       37.3275561064        6.8750000001
  H        15.2816311711       37.3275561176        6.8750000000
  H         6.0180438039       39.7261480375        6.8749999997
  H        15.2819561638       39.7261480295        6.8750000001
  C         8.1833984350       41.3932789028        6.8749999985
  C        10.6500000074       41.3842180494        6.8750000023
  C        13.1166015705       41.3932788890        6.8749999985
  C         6.9764725106       42.1349003060        6.8750000014
  C         9.4133115632       42.1043243702        6.8750000003
  C        11.8866883970       42.1043243794        6.8749999996
  C        14.3235274712       42.1349003619        6.8750000006
  C         6.9766551484       43.5043426453        6.8750000002
  C         9.4131582670       43.5385342248        6.8750000002
  C        11.8868417318       43.5385342193        6.8749999998
  C        14.3233448515       43.5043426007        6.8749999990
  C         8.1834537141       44.2472060902        6.8749999985
  C        10.6499999944       44.2613058032        6.8750000011
  C        13.1165462660       44.2472061031        6.8749999989
  H         6.0190997105       41.6197131459        6.8749999992
  H        15.2809002882       41.6197131419        6.8750000006
  H         6.0185132102       44.0178303499        6.8750000003
  H        15.2814867814       44.0178303530        6.8749999994
  C         8.1826243407       45.6874440906        6.8750000004
  C        10.6499999851       45.6817273835        6.8749999987
  C        13.1173756440       45.6874440737        6.8750000026
  C         6.9742927528       46.4238772054        6.8749999993
  C         9.4114070410       46.4027508084        6.8750000009
  C        11.8885929557       46.4027508044        6.8749999990
  C        14.3257072491       46.4238772092        6.8749999990
  C         6.9717143429       47.7941091527        6.8750000005
  C         9.4069162397       47.8375645615        6.8749999993
  C        11.8930837433       47.8375645678        6.8750000010
  C        14.3282856483       47.7941091458        6.8749999993
  C         8.1747205814       48.5396659997        6.8750000006
  C        10.6499999940       48.5654483779        6.8749999989
  C        13.1252794146       48.5396660093        6.8750000021
  H         6.0183321832       45.9063846951        6.8749999994
  H        15.2816678045       45.9063846958        6.8749999999
  H         6.0126372599       48.3057762935        6.8750000006
  H        15.2873627268       48.3057762910        6.8749999995
  C         8.1612866328       49.9872718817        6.8749999995
  C        10.6499999930       49.9754342958        6.8750000026
  C        13.1387133587       49.9872718726        6.8750000004
  C         6.9514449893       50.7181358684        6.8750000006
  C         9.3984946437       50.6989754235        6.8749999985
  C        11.9015053379       50.6989754203        6.8749999982
  C        14.3485550033       50.7181358760        6.8750000007
  C         6.9498264241       52.1000370816        6.8749999997
  C        14.3501735646       52.1000370767        6.8749999985
  C         9.3756259948       52.1187958517        6.8750000009
  C        11.9243740007       52.1187958624        6.8750000007
  C         8.1645463587       52.7973247683        6.8749999990
  C        10.6499999918       52.9157379727        6.8749999987
  C        13.1354536232       52.7973247657        6.8750000005
  H         5.9976679116       50.1963415723        6.8750000004
  H        15.3023320765       50.1963415730        6.8749999998
  H         6.0056071296       52.6446765503        6.8750000000
  H        15.2943928585       52.6446765489        6.8750000003
  H         8.1651363777        6.0010992194        6.8750000006
  H        10.6499999960        6.3025307964        7.7501078045
  H        10.6499999958        6.3025307975        5.9998921970
  H        13.1348636118        6.0010992179        6.8749999999
  H        13.1348636089       53.8889005280        6.8750000002
  H        10.6499999946       53.5874690855        7.7501077892
  H        10.6499999945       53.5874690852        5.9998922119
  H         8.1651363806       53.8889005315        6.8750000001
