 DBCSR| Multiplication driver                                                SMM
 DBCSR| Multiplication stack size                                           1000
 DBCSR| Multiplication stack buffers                                           0
 DBCSR| Multiplication size stacks                                             3
 DBCSR| Use subcommunicators                                                   T
 DBCSR| Use MPI combined types                                                 F
 DBCSR| Use MPI memory allocation                                              T
 DBCSR| Use Communication thread                                               T
 DBCSR| Communication thread load                                            100


  **** **** ******  **  PROGRAM STARTED AT               2014-01-22 14:45:30.131
 ***** ** ***  *** **   PROGRAM STARTED ON                      spring.kcl.ac.uk
 **    ****   ******    PROGRAM STARTED BY                                  tong
 ***** **    ** ** **   PROGRAM PROCESS ID                                  5164
  **** **  *******  **  PROGRAM STARTED IN /home/tong/tutorials/converging_grid/
                                           sample_output/cutoff_450Ry

 CP2K| version string:                    CP2K version 2.5 (Development Version)
 CP2K| source code revision number:                                  git:071de34
 CP2K| is freely available from                             http://www.cp2k.org/
 CP2K| Program compiled at                          Sat Oct 26 15:17:35 BST 2013
 CP2K| Program compiled on                                      spring.kcl.ac.uk
 CP2K| Program compiled for                                Linux-spring-gfortran
 CP2K| Input file name                                              Si_bulk8.inp

 GLOBAL| Force Environment number                                              1
 GLOBAL| Basis set file name                                           BASIS_SET
 GLOBAL| Geminal file name                                         BASIS_GEMINAL
 GLOBAL| Potential file name                                      GTH_POTENTIALS
 GLOBAL| MM Potential file name                                     MM_POTENTIAL
 GLOBAL| Coordinate file name                                      __STD_INPUT__
 GLOBAL| Method name                                                        CP2K
 GLOBAL| Project name                                                   Si_bulk8
 GLOBAL| Preferred FFT library                                             FFTW3
 GLOBAL| Run type                                                         ENERGY
 GLOBAL| All-to-all communication in single precision                          F
 GLOBAL| FFTs using library dependent lengths                                  F
 GLOBAL| Global print level                                               MEDIUM
 GLOBAL| Total number of message passing processes                             2
 GLOBAL| Number of threads for this process                                    1
 GLOBAL| This output is from process                                           0

 MEMORY| system memory details [Kb]
 MEMORY|                        rank 0           min           max       average
 MEMORY| MemTotal             65362240      65362240      65362240      65362240
 MEMORY| MemFree              58211756      58209400      58211756      58210578
 MEMORY| Buffers                454668        454668        454668        454668
 MEMORY| Cached                4579132       4579132       4579132       4579132
 MEMORY| Slab                   413872        413872        413872        413872
 MEMORY| SReclaimable                0             0             0             0
 MEMORY| MemLikelyFree        63245556      63243200      63245556      63244378


 *** Fundamental physical constants (SI units) ***

 *** Literature: B. J. Mohr and B. N. Taylor,
 ***             CODATA recommended values of the fundamental physical
 ***             constants: 2006, Web Version 5.1
 ***             http://physics.nist.gov/constants

 Speed of light in vacuum [m/s]                             2.99792458000000E+08
 Magnetic constant or permeability of vacuum [N/A**2]       1.25663706143592E-06
 Electric constant or permittivity of vacuum [F/m]          8.85418781762039E-12
 Planck constant (h) [J*s]                                  6.62606896000000E-34
 Planck constant (h-bar) [J*s]                              1.05457162825177E-34
 Elementary charge [C]                                      1.60217648700000E-19
 Electron mass [kg]                                         9.10938215000000E-31
 Electron g factor [ ]                                     -2.00231930436220E+00
 Proton mass [kg]                                           1.67262163700000E-27
 Fine-structure constant                                    7.29735253760000E-03
 Rydberg constant [1/m]                                     1.09737315685270E+07
 Avogadro constant [1/mol]                                  6.02214179000000E+23
 Boltzmann constant [J/K]                                   1.38065040000000E-23
 Atomic mass unit [kg]                                      1.66053878200000E-27
 Bohr radius [m]                                            5.29177208590000E-11

 *** Conversion factors ***

 [u] -> [a.u.]                                              1.82288848426455E+03
 [Angstrom] -> [Bohr] = [a.u.]                              1.88972613288564E+00
 [a.u.] = [Bohr] -> [Angstrom]                              5.29177208590000E-01
 [a.u.] -> [s]                                              2.41888432650478E-17
 [a.u.] -> [fs]                                             2.41888432650478E-02
 [a.u.] -> [J]                                              4.35974393937059E-18
 [a.u.] -> [K]                                              3.15774647902944E+05
 [a.u.] -> [kJ/mol]                                         2.62549961709828E+03
 [a.u.] -> [kcal/mol]                                       6.27509468713739E+02
 [a.u.] -> [Pa]                                             2.94210107994716E+13
 [a.u.] -> [bar]                                            2.94210107994716E+08
 [a.u.] -> [atm]                                            2.90362800883016E+08
 [a.u.] -> [eV]                                             2.72113838565563E+01
 [a.u.] -> [Hz]                                             6.57968392072181E+15
 [a.u.] -> [1/cm] (wave numbers)                            2.19474631370540E+05
 [a.u./Bohr**2] -> [1/cm]                                   5.14048714338585E+03
 

 CELL| Volume [angstrom^3]:                                              160.165
 CELL| Vector a [angstrom]:       5.431     0.000     0.000    |a| =       5.431
 CELL| Vector b [angstrom]:       0.000     5.431     0.000    |b| =       5.431
 CELL| Vector c [angstrom]:       0.000     0.000     5.431    |c| =       5.431
 CELL| Angle (b,c), alpha [degree]:                                       90.000
 CELL| Angle (a,c), beta  [degree]:                                       90.000
 CELL| Angle (a,b), gamma [degree]:                                       90.000
 CELL| Requested initial symmetry:                                         CUBIC

 CELL_REF| Volume [angstrom^3]:                                          160.165
 CELL_REF| Vector a [angstrom     5.431     0.000     0.000    |a| =       5.431
 CELL_REF| Vector b [angstrom     0.000     5.431     0.000    |b| =       5.431
 CELL_REF| Vector c [angstrom     0.000     0.000     5.431    |c| =       5.431
 CELL_REF| Angle (b,c), alpha [degree]:                                   90.000
 CELL_REF| Angle (a,c), beta  [degree]:                                   90.000
 CELL_REF| Angle (a,b), gamma [degree]:                                   90.000
 CELL_REF| Requested initial symmetry:                                     CUBIC

 CELL_TOP| Volume [angstrom^3]:                                          160.165
 CELL_TOP| Vector a [angstrom     5.431     0.000     0.000    |a| =       5.431
 CELL_TOP| Vector b [angstrom     0.000     5.431     0.000    |b| =       5.431
 CELL_TOP| Vector c [angstrom     0.000     0.000     5.431    |c| =       5.431
 CELL_TOP| Angle (b,c), alpha [degree]:                                   90.000
 CELL_TOP| Angle (a,c), beta  [degree]:                                   90.000
 CELL_TOP| Angle (a,b), gamma [degree]:                                   90.000
 CELL_TOP| Requested initial symmetry:                                     CUBIC

 GENERATE|  Preliminary Number of Bonds generated:                             0
 GENERATE|  Achieved consistency in connectivity generation.

 *******************************************************************************
 *******************************************************************************
 **                                                                           **
 **     #####                         ##              ##                      **
 **    ##   ##            ##          ##              ##                      **
 **   ##     ##                       ##            ######                    **
 **   ##     ##  ##   ##  ##   #####  ##  ##   ####   ##    #####    #####    **
 **   ##     ##  ##   ##  ##  ##      ## ##   ##      ##   ##   ##  ##   ##   **
 **   ##  ## ##  ##   ##  ##  ##      ####     ###    ##   ######   ######    **
 **    ##  ###   ##   ##  ##  ##      ## ##      ##   ##   ##       ##        **
 **     #######   #####   ##   #####  ##  ##  ####    ##    #####   ##        **
 **           ##                                                    ##        **
 **                                                                           **
 **                                                ... make the atoms dance   **
 **                                                                           **
 **            Copyright (C) by CP2K Developers Group (2000 - 2013)           **
 **                                                                           **
 *******************************************************************************

 DFT| Spin restricted Kohn-Sham (RKS) calculation                            RKS
 DFT| Multiplicity                                                             1
 DFT| Number of spin states                                                    1
 DFT| Charge                                                                   0
 DFT| Self-interaction correction (SIC)                                       NO
 DFT| Cutoffs: density                                              1.000000E-10
 DFT|          gradient                                             1.000000E-10
 DFT|          tau                                                  1.000000E-10
 DFT|          cutoff_smoothing_range                               0.000000E+00
 DFT| XC density smoothing                                                  NONE
 DFT| XC derivatives                                                          PW
 FUNCTIONAL| ROUTINE=NEW
 FUNCTIONAL| PADE:
 FUNCTIONAL| S. Goedecker, M. Teter and J. Hutter, Phys. Rev. B 54, 1703 (1996)

 QS| Method:                                                                 GPW
 QS| Density plane wave grid type                        NON-SPHERICAL FULLSPACE
 QS| Number of grid levels:                                                    4
 QS| Density cutoff [a.u.]:                                                225.0
 QS| Multi grid cutoff [a.u.]: 1) grid level                               225.0
 QS|                           2) grid level                                75.0
 QS|                           3) grid level                                25.0
 QS|                           4) grid level                                 8.3
 QS| Grid level progression factor:                                          3.0
 QS| Relative density cutoff [a.u.]:                                        30.0
 QS| Consistent realspace mapping and integration 
 QS| Interaction thresholds: eps_pgf_orb:                                1.0E-05
 QS|                         eps_filter_matrix:                          0.0E+00
 QS|                         eps_core_charge:                            1.0E-12
 QS|                         eps_rho_gspace:                             1.0E-10
 QS|                         eps_rho_rspace:                             1.0E-10
 QS|                         eps_gvg_rspace:                             1.0E-05
 QS|                         eps_ppl:                                    1.0E-02
 QS|                         eps_ppnl:                                   1.0E-07


 ATOMIC KIND INFORMATION

  1. Atomic kind: Si                                    Number of atoms:       8

     Orbital Basis Set                                              SZV-GTH-PADE

       Number of orbital shell sets:                                           1
       Number of orbital shells:                                               2
       Number of primitive Cartesian functions:                                4
       Number of Cartesian basis functions:                                    4
       Number of spherical basis functions:                                    4
       Norm type:                                                              2

       Normalised Cartesian orbitals:

                        Set   Shell   Orbital            Exponent    Coefficient

                          1       1    3s                1.203242       0.269412
                                                         0.468841      -0.102290
                                                         0.167986      -0.147195
                                                         0.057562      -0.015996

                          1       2    4px               1.203242       0.085242
                                                         0.468841      -0.143473
                                                         0.167986      -0.083408
                                                         0.057562      -0.014565
                          1       2    4py               1.203242       0.085242
                                                         0.468841      -0.143473
                                                         0.167986      -0.083408
                                                         0.057562      -0.014565
                          1       2    4pz               1.203242       0.085242
                                                         0.468841      -0.143473
                                                         0.167986      -0.083408
                                                         0.057562      -0.014565

     Potential information for                                       GTH-PADE-q4

       Description:                       Goedecker-Teter-Hutter pseudopotential
                                           Goedecker et al., PRB 54, 1703 (1996)
                                          Hartwigsen et al., PRB 58, 3641 (1998)
                                                      Krack, TCA 114, 145 (2005)

       Gaussian exponent of the core charge distribution:               2.582645
       Electronic configuration (s p d ...):                               2   2

       Parameters of the local part of the GTH pseudopotential:

                          rloc        C1          C2          C3          C4
                        0.440000   -7.336103

       Parameters of the non-local part of the GTH pseudopotential:

                   l      r(l)      h(i,j,l)

                   0    0.422738    5.906928   -1.261894
                                   -1.261894    3.258196
                   1    0.484278    2.727013


 MOLECULE KIND INFORMATION


 All atoms are their own molecule, skipping detailed information


 TOTAL NUMBERS AND MAXIMUM NUMBERS

  Total number of            - Atomic kinds:                                   1
                             - Atoms:                                          8
                             - Shell sets:                                     8
                             - Shells:                                        16
                             - Primitive Cartesian functions:                 32
                             - Cartesian basis functions:                     32
                             - Spherical basis functions:                     32

  Maximum angular momentum of- Orbital basis functions:                        1
                             - Local part of the GTH pseudopotential:          0
                             - Non-local part of the GTH pseudopotential:      2


 MODULE QUICKSTEP:  ATOMIC COORDINATES IN angstrom

  Atom  Kind  Element       X           Y           Z          Z(eff)       Mass

       1     1 Si  14    0.000000    0.000000    0.000000      4.00      28.0855
       2     1 Si  14    0.000000    2.715349    2.715349      4.00      28.0855
       3     1 Si  14    2.715349    2.715349    0.000000      4.00      28.0855
       4     1 Si  14    2.715349    0.000000    2.715349      4.00      28.0855
       5     1 Si  14    4.073023    1.357674    4.073023      4.00      28.0855
       6     1 Si  14    1.357674    1.357674    1.357674      4.00      28.0855
       7     1 Si  14    1.357674    4.073023    4.073023      4.00      28.0855
       8     1 Si  14    4.073023    4.073023    1.357674      4.00      28.0855




 SCF PARAMETERS         Density guess:                                    ATOMIC
                        --------------------------------------------------------
                        max_scf:                                               1
                        max_scf_history:                                       0
                        max_diis:                                              4
                        --------------------------------------------------------
                        eps_scf:                                        1.00E-06
                        eps_scf_history:                                0.00E+00
                        eps_diis:                                       1.00E-01
                        eps_eigval:                                     1.00E-05
                        --------------------------------------------------------
                        level_shift [a.u.]:                                 0.00
                        added MOs                                        10    0
                        --------------------------------------------------------
                        Mixing method:                            BROYDEN_MIXING
                                                charge density mixing in g-space
                        --------------------------------------------------------
                        Smear method:                                FERMI_DIRAC
                        Electronic temperature [K]:                        300.0
                        Electronic temperature [a.u.]:                  9.50E-04
                        Accuracy threshold:                             1.00E-10
                        --------------------------------------------------------
                        No outer SCF

 PW_GRID: Information for grid number                                          1
 PW_GRID: Grid distributed over                                     2 processors
 PW_GRID: Real space group dimensions                                     2    1
 PW_GRID: the grid is blocked:                                                NO
 PW_GRID: Cutoff [a.u.]                                                    225.0
 PW_GRID: spherical cutoff:                                                   NO
 PW_GRID:   Bounds   1            -36      35                Points:          72
 PW_GRID:   Bounds   2            -36      35                Points:          72
 PW_GRID:   Bounds   3            -36      35                Points:          72
 PW_GRID: Volume element (a.u.^3)  0.2896E-02     Volume (a.u.^3)      1080.8451
 PW_GRID: Grid span                                                    FULLSPACE
 PW_GRID:   Distribution                         Average         Max         Min
 PW_GRID:   G-Vectors                           186624.0      186624      186624
 PW_GRID:   G-Rays                                2592.0        2592        2592
 PW_GRID:   Real Space Points                   186624.0      186624      186624

 PW_GRID: Information for grid number                                          2
 PW_GRID: Grid distributed over                                     2 processors
 PW_GRID: Real space group dimensions                                     2    1
 PW_GRID: the grid is blocked:                                                NO
 PW_GRID: Cutoff [a.u.]                                                     75.0
 PW_GRID: spherical cutoff:                                                   NO
 PW_GRID:   Bounds   1            -22      22                Points:          45
 PW_GRID:   Bounds   2            -22      22                Points:          45
 PW_GRID:   Bounds   3            -22      22                Points:          45
 PW_GRID: Volume element (a.u.^3)  0.1186E-01     Volume (a.u.^3)      1080.8451
 PW_GRID: Grid span                                                    FULLSPACE
 PW_GRID:   Distribution                         Average         Max         Min
 PW_GRID:   G-Vectors                            45562.5       45585       45540
 PW_GRID:   G-Rays                                1012.5        1013        1012
 PW_GRID:   Real Space Points                    45562.5       46575       44550

 PW_GRID: Information for grid number                                          3
 PW_GRID: Grid distributed over                                     2 processors
 PW_GRID: Real space group dimensions                                     2    1
 PW_GRID: the grid is blocked:                                                NO
 PW_GRID: Cutoff [a.u.]                                                     25.0
 PW_GRID: spherical cutoff:                                                   NO
 PW_GRID:   Bounds   1            -12      11                Points:          24
 PW_GRID:   Bounds   2            -12      11                Points:          24
 PW_GRID:   Bounds   3            -12      11                Points:          24
 PW_GRID: Volume element (a.u.^3)  0.7819E-01     Volume (a.u.^3)      1080.8451
 PW_GRID: Grid span                                                    FULLSPACE
 PW_GRID:   Distribution                         Average         Max         Min
 PW_GRID:   G-Vectors                             6912.0        6936        6888
 PW_GRID:   G-Rays                                 288.0         289         287
 PW_GRID:   Real Space Points                     6912.0        6912        6912

 PW_GRID: Information for grid number                                          4
 PW_GRID: Grid distributed over                                     2 processors
 PW_GRID: Real space group dimensions                                     2    1
 PW_GRID: the grid is blocked:                                                NO
 PW_GRID: Cutoff [a.u.]                                                      8.3
 PW_GRID: spherical cutoff:                                                   NO
 PW_GRID:   Bounds   1             -7       7                Points:          15
 PW_GRID:   Bounds   2             -7       7                Points:          15
 PW_GRID:   Bounds   3             -7       7                Points:          15
 PW_GRID: Volume element (a.u.^3)  0.3203         Volume (a.u.^3)      1080.8451
 PW_GRID: Grid span                                                    FULLSPACE
 PW_GRID:   Distribution                         Average         Max         Min
 PW_GRID:   G-Vectors                             1687.5        1695        1680
 PW_GRID:   G-Rays                                 112.5         113         112
 PW_GRID:   Real Space Points                     1687.5        1800        1575

 RS_GRID: Information for grid number                                          1
 RS_GRID:   Bounds   1            -36      35                Points:          72
 RS_GRID:   Bounds   2            -36      35                Points:          72
 RS_GRID:   Bounds   3            -36      35                Points:          72
 RS_GRID: Real space fully replicated
 RS_GRID: Group size                                                           1

 RS_GRID: Information for grid number                                          2
 RS_GRID:   Bounds   1            -22      22                Points:          45
 RS_GRID:   Bounds   2            -22      22                Points:          45
 RS_GRID:   Bounds   3            -22      22                Points:          45
 RS_GRID: Real space fully replicated
 RS_GRID: Group size                                                           1

 RS_GRID: Information for grid number                                          3
 RS_GRID:   Bounds   1            -12      11                Points:          24
 RS_GRID:   Bounds   2            -12      11                Points:          24
 RS_GRID:   Bounds   3            -12      11                Points:          24
 RS_GRID: Real space fully replicated
 RS_GRID: Group size                                                           1

 RS_GRID: Information for grid number                                          4
 RS_GRID:   Bounds   1             -7       7                Points:          15
 RS_GRID:   Bounds   2             -7       7                Points:          15
 RS_GRID:   Bounds   3             -7       7                Points:          15
 RS_GRID: Real space fully replicated
 RS_GRID: Group size                                                           1

 DISTRIBUTION OF THE PARTICLES (ROWS)
              Process row      Number of particles         Number of matrix rows
                        0                        4                            -1
                        1                        4                            -1
                      Sum                        8                            -1

 DISTRIBUTION OF THE PARTICLES (COLUMNS)
              Process col      Number of particles      Number of matrix columns
                        0                        8                            -1
                      Sum                        8                            -1

 DISTRIBUTION OF THE NEIGHBOR LISTS
              Total number of particle pairs:                               2712
              Total number of matrix elements:                             43392
              Average number of particle pairs:                             1356
              Maximum number of particle pairs:                             1356
              Average number of matrix element:                            21696
              Maximum number of matrix elements:                           21696


 DISTRIBUTION OF THE OVERLAP MATRIX
              Number  of non-zero blocks:                                     36
              Percentage non-zero blocks:                                 100.00
              Average number of blocks per CPU:                               18
              Maximum number of blocks per CPU:                               18
              Average number of matrix elements per CPU:                     298
              Maximum number of matrix elements per CPU:                     298

 Number of electrons:                                                         32
 Number of occupied orbitals:                                                 16
 Number of molecular orbitals:                                                26

 Number of orbital functions:                                                 32
 Number of independent orbital functions:                                     32

 Extrapolation method: initial_guess

 Atomic guess: The first density matrix is obtained in terms of atomic orbitals
               and electronic configurations assigned to each atomic kind

 Guess for atomic kind: Si

 Electronic structure
    Total number of core electrons                                         10.00
    Total number of valence electrons                                       4.00
    Total number of electrons                                              14.00
    Multiplicity                                                   not specified
    S   [  2.00  2.00] 2.00
    P   [  6.00] 2.00


 *******************************************************************************
                  Iteration          Convergence                     Energy [au]
 *******************************************************************************
                          1         0.00000                      -3.698939295593

 Energy components [Hartree]           Total Energy ::           -3.698939295593
                                        Band Energy ::           -2.912326140277
                                     Kinetic Energy ::            1.350234186210
                                   Potential Energy ::           -5.049173481803
                                      Virial (-V/T) ::            3.739479812739
                                        Core Energy ::           -5.669266714455
                                          XC Energy ::           -0.965154030174
                                     Coulomb Energy ::            2.935481449036
                       Total Pseudopotential Energy ::           -7.066612060196
                       Local Pseudopotential Energy ::           -7.891728242282
                    Nonlocal Pseudopotential Energy ::            0.825116182086
                                        Confinement ::            0.471111595310

 Orbital energies  State     L     Occupation   Energy[a.u.]          Energy[eV]

                       1     0          2.000      -0.896599          -24.397695

                       1     1          2.000      -0.559564          -15.226517

 Re-scaling the density matrix to get the right number of electrons
                  # Electrons              Trace(P)               Scaling factor
                           32                30.951                        1.034


 SCF WAVEFUNCTION OPTIMIZATION

  Step     Update method      Time    Convergence         Total energy    Change
  ------------------------------------------------------------------------------

  Trace(PS):                                   32.0000000000
  Electronic density on regular grids:        -31.9999999993        0.0000000007
  Core density on regular grids:               31.9999999949       -0.0000000051
  Total charge density on r-space grids:       -0.0000000044
  Total charge density g-space grids:          -0.0000000044

     1 NoMix/Diag. 0.40E+00    0.5     1.10090813       -32.3804554851 -3.24E+01

  *** SCF run NOT converged ***


  Electronic density on regular grids:        -31.9999999993        0.0000000007
  Core density on regular grids:               31.9999999949       -0.0000000051
  Total charge density on r-space grids:       -0.0000000044
  Total charge density g-space grids:          -0.0000000044

  Overlap energy of the core charge distribution:               0.00000000005320
  Self energy of the core charge distribution:                -82.06393942512820
  Core Hamiltonian energy:                                     16.92855916540793
  Hartree energy:                                              42.17635056130462
  Exchange-correlation energy:                                 -9.42142578671426
  Electronic entropic energy:                                   0.00000000000000
  Fermi energy:                                                 0.00000000000000

  Total energy:                                               -32.38045548507671


 MULLIKEN POPULATION ANALYSIS

 #  Atom  Element  Kind  Atomic population                Net charge
       1     Si       1          4.000000                 -0.000000
       2     Si       1          4.000000                  0.000000
       3     Si       1          4.000000                  0.000000
       4     Si       1          4.000000                  0.000000
       5     Si       1          4.000000                 -0.000000
       6     Si       1          4.000000                  0.000000
       7     Si       1          4.000000                 -0.000000
       8     Si       1          4.000000                 -0.000000
 # Total charge                 32.000000                 -0.000000


 ENERGY| Total FORCE_EVAL ( QS ) energy (a.u.):              -32.380455485076709


 -------------------------------------------------------------------------------
 -                                                                             -
 -                                DBCSR STATISTICS                             -
 -                                                                             -
 -------------------------------------------------------------------------------
 COUNTER                                      CPU                  GPU      GPU%
 number of processed stacks                     4                    0       0.0
 mutmuls inhomo. stacks                         0                    0       0.0
 matmuls   4 x    4 x   10                     36                    0       0.0
 matmuls   4 x    4 x   16                     36                    0       0.0
 matmuls total                                 72                    0       0.0
 flops total                                29952                    0       0.0
 -------------------------------------------------------------------------------

 -------------------------------------------------------------------------------
 ----                             MULTIGRID INFO                            ----
 -------------------------------------------------------------------------------
 count for grid        1:              0          cutoff [a.u.]          225.00
 count for grid        2:           2032          cutoff [a.u.]           75.00
 count for grid        3:           3016          cutoff [a.u.]           25.00
 count for grid        4:           5448          cutoff [a.u.]            8.33
 total gridlevel count  :          10496

 -------------------------------------------------------------------------------
 -                                                                             -
 -                         MESSAGE PASSING PERFORMANCE                         -
 -                                                                             -
 -------------------------------------------------------------------------------

 ROUTINE             CALLS  TOT TIME [s]  AVE VOLUME [Bytes]  PERFORMANCE [MB/s]
 MP_Group                4         0.000
 MP_Bcast               29         0.005            6722830.            38992.41
 MP_Allreduce           88         0.008               1109.               12.20
 MP_Sync                 4         0.001
 MP_Alltoall            16         0.024            5882490.             3921.66
 MP_ISendRecv           13         0.000             561450.                0.00
 MP_Wait                13         0.012
 -------------------------------------------------------------------------------


 -------------------------------------------------------------------------------
 -                                                                             -
 -                           R E F E R E N C E S                               -
 -                                                                             -
 -------------------------------------------------------------------------------
 
 CP2K version 2.5 (Development Version), the CP2K developers group (2013).
 CP2K is freely available from http://www.cp2k.org/ .

 Krack, M. 
 THEORETICAL CHEMISTRY ACCOUNTS, 114 (1-3), 145-152 (2005). 
 Pseudopotentials for H to Kr optimized for gradient-corrected
 exchange-correlation functionals.
 http://dx.doi.org/10.1007/s00214-005-0655-y


 VandeVondele, J; Krack, M; Mohamed, F; Parrinello, M; Chassaing, T;
 Hutter, J. COMPUTER PHYSICS COMMUNICATIONS, 167 (2), 103-128 (2005). 
 QUICKSTEP: Fast and accurate density functional calculations using a
 mixed Gaussian and plane waves approach.
 http://dx.doi.org/10.1016/j.cpc.2004.12.014


 Frigo, M; Johnson, SG. 
 PROCEEDINGS OF THE IEEE, 93 (2), 216-231 (2005). 
 The design and implementation of FFTW3.
 http://dx.doi.org/10.1109/JPROC.2004.840301


 Hartwigsen, C; Goedecker, S; Hutter, J. 
 PHYSICAL REVIEW B, 58 (7), 3641-3662 (1998). 
 Relativistic separable dual-space Gaussian pseudopotentials from H to Rn.
 http://dx.doi.org/10.1103/PhysRevB.58.3641


 Lippert, G; Hutter, J; Parrinello, M. 
 MOLECULAR PHYSICS, 92 (3), 477-487 (1997). 
 A hybrid Gaussian and plane wave density functional scheme.
 http://dx.doi.org/10.1080/002689797170220


 Goedecker, S; Teter, M; Hutter, J. 
 PHYSICAL REVIEW B, 54 (3), 1703-1710 (1996). 
 Separable dual-space Gaussian pseudopotentials.
 http://dx.doi.org/10.1103/PhysRevB.54.1703


 -------------------------------------------------------------------------------
 -                                                                             -
 -                                T I M I N G                                  -
 -                                                                             -
 -------------------------------------------------------------------------------
 SUBROUTINE                       CALLS  ASD         SELF TIME        TOTAL TIME
                                              AVERAGE  MAXIMUM  AVERAGE  MAXIMUM
 CP2K                                 1  1.0    0.009    0.012    1.924    1.926
 qs_energies_scf                      1  2.0    0.000    0.000    1.730    1.730
 scf_env_do_scf_inner_loop            1  4.0    0.000    0.000    0.936    0.936
 scf_env_do_scf                       1  3.0    0.000    0.000    0.936    0.936
 calculate_rho_elec                   2  6.0    0.764    0.764    0.906    0.907
 qs_rho_update_rho                    2  5.0    0.000    0.001    0.907    0.907
 init_scf_run                         1  3.0    0.001    0.001    0.566    0.566
 scf_env_initial_rho_setup            1  4.0    0.000    0.000    0.564    0.565
 qs_ks_build_kohn_sham_matrix         1  6.0    0.000    0.000    0.479    0.479
 qs_ks_update_qs_env                  1  5.0    0.000    0.000    0.479    0.479
 sum_up_and_integrate                 1  7.0    0.001    0.001    0.409    0.409
 integrate_v_rspace                   1  8.0    0.366    0.367    0.407    0.408
 qs_energies_init_hamiltonians        1  3.0    0.000    0.000    0.226    0.226
 fft_wrap_pw1pw2                     16  8.3    0.001    0.002    0.211    0.212
 fft_wrap_pw1pw2_230                  7  8.9    0.014    0.015    0.188    0.189
 quickstep_create_force_env           1  2.0    0.001    0.001    0.182    0.182
 fft3d_ps                            16 10.3    0.104    0.105    0.147    0.148
 density_rs2pw                        2  7.0    0.000    0.001    0.141    0.142
 build_core_hamiltonian_matrix        1  4.0    0.000    0.000    0.142    0.142
 qs_init_subsys                       1  3.0    0.001    0.001    0.135    0.135
 qs_env_setup                         1  4.0    0.001    0.001    0.128    0.130
 pw_env_rebuild                       1  7.0    0.002    0.004    0.127    0.129
 pw_env_create                        1  6.0    0.000    0.000    0.127    0.129
 qs_env_rebuild_pw_env                1  5.0    0.000    0.000    0.127    0.129
 pw_grid_setup                        4  8.0    0.004    0.004    0.118    0.118
 mixing_init                          1  5.0    0.104    0.104    0.104    0.104
 pw_grid_sort                         4  9.0    0.062    0.065    0.089    0.092
 qs_env_update_s_mstruct              1  4.0    0.000    0.000    0.082    0.082
 build_core_ppl                       1  5.0    0.071    0.072    0.071    0.072
 build_core_ppnl                      1  5.0    0.051    0.052    0.051    0.052
 calculate_rho_core                   1  5.0    0.006    0.006    0.051    0.051
 read_atomic_kind                     1  4.0    0.024    0.025    0.044    0.045
 read_atomic_kind_set                 1  3.0    0.000    0.000    0.044    0.045
 potential_pw2rs                      1  9.0    0.001    0.001    0.041    0.041
 -------------------------------------------------------------------------------

  **** **** ******  **  PROGRAM ENDED AT                 2014-01-22 14:45:33.247
 ***** ** ***  *** **   PROGRAM RAN ON                          spring.kcl.ac.uk
 **    ****   ******    PROGRAM RAN BY                                      tong
 ***** **    ** ** **   PROGRAM PROCESS ID                                  5164
  **** **  *******  **  PROGRAM STOPPED IN /home/tong/tutorials/converging_grid/
                                           sample_output/cutoff_450Ry
